
#(C) 2025 by FIZ Karlsruhe - Leibniz Institute for Information Infrastructure.  All rights reserved.
data_262678-ICSD
_database_code_ICSD 262678
_audit_creation_date 2012-08-01
_chemical_name_common 'Barium nickel silicide (8/3.7/41.4)'
_chemical_formula_structural 'Ba8.0 Ni3.7 Si41.4'
_chemical_formula_sum 'Ba8 Ni3.7 Si41.4'
_chemical_name_structure_type K8Si46
_exptl_crystal_density_diffrn 3.78
_diffrn_ambient_temperature 295.
_citation_title

;
Synthesis, crystal structure, and physical properties of the type-I clathrate
Ba(8-d) Ni(x[]y) Si(46-x-y)
;
loop_
_citation_id
_citation_journal_full
_citation_year
_citation_journal_volume
_citation_page_first
_citation_page_last
_citation_journal_id_ASTM
primary 'Inorganic Chemistry' 2012 51 4730 4741 INOCAJ
loop_
_citation_author_citation_id
_citation_author_name
primary 'Aydemir, U.'
primary 'Candolfi, C.'
primary 'Ormeci, A.'
primary 'Borrmann, H.'
primary 'Burkhardt, U.'
primary 'Oztan, Y.'
primary 'Oeschler, N.'
primary 'Baitinger, M.'
primary 'Steglich, F.'
primary "Grin', Yu. (Hrin', Yu."
primary ' Grin, Yu.'
primary ' Hrin, Yu.)'
_cell_length_a 10.2906(1)
_cell_length_b 10.2906(1)
_cell_length_c 10.2906(1)
_cell_angle_alpha 90
_cell_angle_beta 90
_cell_angle_gamma 90
_cell_volume 1089.74
_cell_formula_units_Z 1
_space_group_name_H-M_alt 'P m -3 n'
_space_group_IT_number 223
loop_
_space_group_symop_id
_space_group_symop_operation_xyz
1 'z+1/2, -y+1/2, x+1/2'
2 'y+1/2, -x+1/2, z+1/2'
3 'x+1/2, -z+1/2, y+1/2'
4 '-z+1/2, y+1/2, -x+1/2'
5 '-y+1/2, x+1/2, -z+1/2'
6 '-x+1/2, z+1/2, -y+1/2'
7 'z+1/2, y+1/2, -x+1/2'
8 'y+1/2, x+1/2, -z+1/2'
9 'x+1/2, z+1/2, -y+1/2'
10 '-z+1/2, -y+1/2, x+1/2'
11 '-y+1/2, -x+1/2, z+1/2'
12 '-x+1/2, -z+1/2, y+1/2'
13 '-z+1/2, y+1/2, x+1/2'
14 '-y+1/2, x+1/2, z+1/2'
15 '-x+1/2, z+1/2, y+1/2'
16 'z+1/2, -y+1/2, -x+1/2'
17 'y+1/2, -x+1/2, -z+1/2'
18 'x+1/2, -z+1/2, -y+1/2'
19 '-z+1/2, -y+1/2, -x+1/2'
20 '-y+1/2, -x+1/2, -z+1/2'
21 '-x+1/2, -z+1/2, -y+1/2'
22 'z+1/2, y+1/2, x+1/2'
23 'y+1/2, x+1/2, z+1/2'
24 'x+1/2, z+1/2, y+1/2'
25 'z, x, -y'
26 'y, z, -x'
27 'x, y, -z'
28 '-z, -x, y'
29 '-y, -z, x'
30 '-x, -y, z'
31 'z, -x, y'
32 'y, -z, x'
33 'x, -y, z'
34 '-z, x, -y'
35 '-y, z, -x'
36 '-x, y, -z'
37 '-z, x, y'
38 '-y, z, x'
39 '-x, y, z'
40 'z, -x, -y'
41 'y, -z, -x'
42 'x, -y, -z'
43 '-z, -x, -y'
44 '-y, -z, -x'
45 '-x, -y, -z'
46 'z, x, y'
47 'y, z, x'
48 'x, y, z'
loop_
_atom_type_symbol
_atom_type_oxidation_number
Ba0+ 0
Ni0+ 0
Si0+ 0
loop_
_atom_site_label
_atom_site_type_symbol
_atom_site_symmetry_multiplicity
_atom_site_Wyckoff_symbol
_atom_site_fract_x
_atom_site_fract_y
_atom_site_fract_z
_atom_site_U_iso_or_equiv
_atom_site_occupancy
Ba1 Ba0+ 2 a 0 0 0 0.01052(5) 1.
Ba2 Ba0+ 24 k 0.24311(9) 0.51155(9) 0 0.0214(8) 0.25
Ni1 Ni0+ 6 c 0.25 0 0.5 0.0085(2) 0.617
Si1 Si0+ 6 c 0.25 0 0.5 0.0085(2) 0.231(8)
Si2 Si0+ 16 i 0.18434(5) 0.18434 0.18434 0.00981(7) 1.
Si3 Si0+ 24 k 0 0.3072(3) 0.1094(3) 0.0076(6) 0.232(3)
Si4 Si0+ 24 k 0 0.3122(1) 0.1231(1) 0.0099(3) 0.617
Si5 Si0+ 24 k 0 0.3216(5) 0.1343(5) 0.0080(9) 0.152(4)
loop_
_atom_site_aniso_label
_atom_site_aniso_type_symbol
_atom_site_aniso_U_11
_atom_site_aniso_U_22
_atom_site_aniso_U_33
_atom_site_aniso_U_12
_atom_site_aniso_U_13
_atom_site_aniso_U_23
Ba1 Ba0+ 0.01052(8) 0.01052(8) 0.01052(8) 0. 0. 0.
Ba2 Ba0+ 0.0085(2) 0.019(2) 0.037(2) -0.0008(7) 0. 0.
Ni1 Ni0+ 0.0090(3) 0.0082(2) 0.0082(2) 0. 0. 0.
Si2 Si0+ 0.0098(1) 0.0098(1) 0.0098(1) -0.0006(1) -0.0006(1) -0.0006(1)
Si3 Si0+ 0.0048(9) 0.0095(11) 0.0086(10) 0. 0. -0.0006(8)
Si4 Si0+ 0.0119(4) 0.0089(4) 0.0089(4) 0. 0. 0.0016(3)
Si5 Si0+ 0.0040(14) 0.008(2) 0.012(2) 0. 0. -0.0027(14)
#End of TTdata_262678-ICSD