
#(C) 2025 by FIZ Karlsruhe - Leibniz Institute for Information Infrastructure.  All rights reserved.
data_409929-ICSD
_database_code_ICSD 409929
_audit_creation_date 2008-08-01
_chemical_name_common 'Silicon phosphorus telluride (32.4/13.6/6.98)'
_chemical_formula_structural 'Si32.4 P13.6 Te6.98'
_chemical_formula_sum 'P13.6 Si32.4 Te6.98'
_chemical_name_structure_type K8Si46
_exptl_crystal_density_diffrn 3.71
_diffrn_ambient_temperature 295.
_citation_title

;
Crystal structure of silicon phosphorus telluride, Si(46 - x) P(x) Te(y) (y =
7.35, 6.98, 6.88; x <= 2y), a cationic clathrate-I
;
loop_
_citation_id
_citation_journal_full
_citation_year
_citation_journal_volume
_citation_page_first
_citation_page_last
_citation_journal_id_ASTM
primary 'Zeitschrift fuer Kristallographie - New Crystal Structures' 2007 222
177 178 ZKNSFT
loop_
_citation_author_citation_id
_citation_author_name
primary 'Zaikina, J.V.'
primary 'Kovnir, K.A.'
primary 'Schwarz, U.'
primary 'Borrmann, H.'
primary 'Shevelkov, A.V.'
_cell_length_a 9.9794(2)
_cell_length_b 9.9794(2)
_cell_length_c 9.9794(2)
_cell_angle_alpha 90
_cell_angle_beta 90
_cell_angle_gamma 90
_cell_volume 993.83
_cell_formula_units_Z 1
_space_group_name_H-M_alt 'P m -3'
_space_group_IT_number 200
loop_
_space_group_symop_id
_space_group_symop_operation_xyz
1 '-z, x, y'
2 'z, x, -y'
3 'z, -x, y'
4 '-z, -x, -y'
5 'y, -z, x'
6 '-y, z, x'
7 'y, z, -x'
8 '-y, -z, -x'
9 'x, y, -z'
10 'x, -y, z'
11 '-x, y, z'
12 '-x, -y, -z'
13 'z, -x, -y'
14 '-z, -x, y'
15 '-z, x, -y'
16 'z, x, y'
17 '-y, z, -x'
18 'y, -z, -x'
19 '-y, -z, x'
20 'y, z, x'
21 '-x, -y, z'
22 '-x, y, -z'
23 'x, -y, -z'
24 'x, y, z'
loop_
_atom_type_symbol
_atom_type_oxidation_number
Te0+ 0
Si0+ 0
P0+ 0
Si0+ 0
P0+ 0
Si0+ 0
P0+ 0
Si0+ 0
loop_
_atom_site_label
_atom_site_type_symbol
_atom_site_symmetry_multiplicity
_atom_site_Wyckoff_symbol
_atom_site_fract_x
_atom_site_fract_y
_atom_site_fract_z
_atom_site_U_iso_or_equiv
_atom_site_occupancy
Te1 Te0+ 1 a 0. 0. 0. 0.00625(5) 0.9519(18)
Te2 Te0+ 1 b 0.5 0.5 0.5 0.00625(5) 0.0288(10)
Te3 Te0+ 6 g 0.263898(13) 0.5 0. 0.01193(2) 1
Si1 Si0+ 6 f 0.24562(5) 0. 0.5 0.00683(15) 0.75(5)
P1 P0+ 6 f 0.24562(5) 0. 0.5 0.00683(15) 0.25(5)
Si2 Si0+ 8 i 0.18434(2) 0.18434(2) 0.18434(2) 0.00691(6) 1
P2 P0+ 8 i 0.31739(2) 0.31739(2) 0.31739(2) 0.00597(5) 1
Si3 Si0+ 12 j 0. 0.30830(3) 0.11685(3) 0.00705(9) 0.66(3)
P3 P0+ 12 j 0. 0.30830(3) 0.11685(3) 0.00705(9) 0.34(3)
Si4 Si0+ 12 k 0.5 0.38289(3) 0.18991(3) 0.00796(5) 1
loop_
_atom_site_aniso_label
_atom_site_aniso_type_symbol
_atom_site_aniso_U_11
_atom_site_aniso_U_22
_atom_site_aniso_U_33
_atom_site_aniso_U_12
_atom_site_aniso_U_13
_atom_site_aniso_U_23
Te1 Te0+ 0.00625(5) 0.00625(5) 0.00625(5) 0. 0. 0.
Te2 Te0+ 0.00625(5) 0.00625(5) 0.00625(5) 0. 0. 0.
Te3 Te0+ 0.00869(4) 0.01573(5) 0.01136(5) 0. 0. 0.
Si1 Si0+ 0.0081(2) 0.0063(2) 0.0062(2) 0. 0. 0.
P1 P0+ 0.0081(2) 0.0063(2) 0.0062(2) 0. 0. 0.
Si2 Si0+ 0.00691(6) 0.00691(6) 0.00691(6) 0.00016(6) 0.00016(6) 0.00016(6)
P2 P0+ 0.00597(5) 0.00597(5) 0.00597(5) -0.00018(5) -0.00018(5) -0.00018(5)
Si3 Si0+ 0.00647(13) 0.00737(14) 0.00729(14) 0. 0. -0.00176(9)
P3 P0+ 0.00647(13) 0.00737(14) 0.00729(14) 0. 0. -0.00176(9)
Si4 Si0+ 0.00895(13) 0.00676(12) 0.00818(12) 0. 0. -0.00190(9)
#End of TTdata_409929-ICSD