
#(C) 2025 by FIZ Karlsruhe - Leibniz Institute for Information Infrastructure.  All rights reserved.
data_237676-ICSD
_database_code_ICSD 237676
_audit_creation_date 2015-02-01
_chemical_name_common 'Barium germanium rhodium (8/42.74/1.2)'
_chemical_formula_structural 'Ba8 Ge42.74 Rh1.2'
_chemical_formula_sum 'Ba8 Ge42.74 Rh1.2'
_chemical_name_structure_type K8Si46
_exptl_crystal_density_diffrn 5.85
_diffrn_ambient_temperature 300.
_citation_title

;
Cage-forming compounds in the Ba-Rh-Ge system: From thermoelectrics to
superconductivity
;
loop_
_citation_id
_citation_journal_full
_citation_year
_citation_journal_volume
_citation_page_first
_citation_page_last
_citation_journal_id_ASTM
primary 'Inorganic Chemistry' 2013 52 931 943 INOCAJ
loop_
_citation_author_citation_id
_citation_author_name
primary 'Falmbigl, M.'
primary 'Kneidinger, F.'
primary 'Chen, M.'
primary 'Grytsiv, A.'
primary 'Michor, H.'
primary 'Royanian, E.'
primary 'Bauer, E.'
primary 'Effenberger, H.'
primary 'Podloucky, R.'
primary 'Rogl, P.'
_cell_length_a 10.708(2)
_cell_length_b 10.708(2)
_cell_length_c 10.708(2)
_cell_angle_alpha 90.
_cell_angle_beta 90.
_cell_angle_gamma 90.
_cell_volume 1227.79
_cell_formula_units_Z 1
_space_group_name_H-M_alt 'P m -3 n'
_space_group_IT_number 223
loop_
_space_group_symop_id
_space_group_symop_operation_xyz
1 'z+1/2, -y+1/2, x+1/2'
2 'y+1/2, -x+1/2, z+1/2'
3 'x+1/2, -z+1/2, y+1/2'
4 '-z+1/2, y+1/2, -x+1/2'
5 '-y+1/2, x+1/2, -z+1/2'
6 '-x+1/2, z+1/2, -y+1/2'
7 'z+1/2, y+1/2, -x+1/2'
8 'y+1/2, x+1/2, -z+1/2'
9 'x+1/2, z+1/2, -y+1/2'
10 '-z+1/2, -y+1/2, x+1/2'
11 '-y+1/2, -x+1/2, z+1/2'
12 '-x+1/2, -z+1/2, y+1/2'
13 '-z+1/2, y+1/2, x+1/2'
14 '-y+1/2, x+1/2, z+1/2'
15 '-x+1/2, z+1/2, y+1/2'
16 'z+1/2, -y+1/2, -x+1/2'
17 'y+1/2, -x+1/2, -z+1/2'
18 'x+1/2, -z+1/2, -y+1/2'
19 '-z+1/2, -y+1/2, -x+1/2'
20 '-y+1/2, -x+1/2, -z+1/2'
21 '-x+1/2, -z+1/2, -y+1/2'
22 'z+1/2, y+1/2, x+1/2'
23 'y+1/2, x+1/2, z+1/2'
24 'x+1/2, z+1/2, y+1/2'
25 'z, x, -y'
26 'y, z, -x'
27 'x, y, -z'
28 '-z, -x, y'
29 '-y, -z, x'
30 '-x, -y, z'
31 'z, -x, y'
32 'y, -z, x'
33 'x, -y, z'
34 '-z, x, -y'
35 '-y, z, -x'
36 '-x, y, -z'
37 '-z, x, y'
38 '-y, z, x'
39 '-x, y, z'
40 'z, -x, -y'
41 'y, -z, -x'
42 'x, -y, -z'
43 '-z, -x, -y'
44 '-y, -z, -x'
45 '-x, -y, -z'
46 'z, x, y'
47 'y, z, x'
48 'x, y, z'
loop_
_atom_type_symbol
_atom_type_oxidation_number
Ba0+ 0
Rh0+ 0
Ge0+ 0
loop_
_atom_site_label
_atom_site_type_symbol
_atom_site_symmetry_multiplicity
_atom_site_Wyckoff_symbol
_atom_site_fract_x
_atom_site_fract_y
_atom_site_fract_z
_atom_site_U_iso_or_equiv
_atom_site_occupancy
Ba1 Ba0+ 2 a 0. 0. 0. 0.0151(2) 1
Ba2 Ba0+ 6 c 0.25 0. 0.5 0.0422(3) 1
Rh1 Rh0+ 6 d 0.25 0.5 0. 0.0151(6) 0.2
Ge1 Ge0+ 6 d 0.25 0.5 0. 0.0151(6) 0.457(6)
Ge2 Ge0+ 16 i 0.18364(4) 0.18364(4) 0.18364(4) 0.01769(18) 1
Ge3 Ge0+ 24 k 0. 0.1156(12) 0.3092(12) 0.0174(10) 0.64(7)
Ge4 Ge0+ 24 k 0. 0.1334(19) 0.335(3) 0.0223(18) 0.36(7)
loop_
_atom_site_aniso_label
_atom_site_aniso_type_symbol
_atom_site_aniso_U_11
_atom_site_aniso_U_22
_atom_site_aniso_U_33
_atom_site_aniso_U_12
_atom_site_aniso_U_13
_atom_site_aniso_U_23
Ba1 Ba0+ 0.0151(2) 0.0151(2) 0.0151(2) 0. 0. 0.
Ba2 Ba0+ 0.0269(5) 0.0499(4) 0.0499(4) 0. 0. 0.
Rh1 Rh0+ 0.0184(10) 0.0134(7) 0.0134(7) 0. 0. 0.
Ge1 Ge0+ 0.0184(10) 0.0134(7) 0.0134(7) 0. 0. 0.
Ge2 Ge0+ 0.01769(18) 0.01769(18) 0.01769(18) -0.00286(16) -0.00286(16)
-0.00286(16)
Ge3 Ge0+ 0.0163(8) 0.0191(19) 0.017(2) 0. 0. 0.0004(12)
Ge4 Ge0+ 0.0192(15) 0.022(3) 0.025(5) 0. 0. -0.003(3)
#End of TTdata_237676-ICSD