
#(C) 2025 by FIZ Karlsruhe - Leibniz Institute for Information Infrastructure.  All rights reserved.
data_171242-ICSD
_database_code_ICSD 171242
_audit_creation_date 2006-10-01
_chemical_name_common 'Europium barium aluminium silicon (0.27/7.22/13/29)'
_chemical_formula_structural 'Eu0.27 Ba7.22 Al13 Si29'
_chemical_formula_sum 'Al13 Ba7.22 Eu0.27 Si29'
_chemical_name_structure_type K8Si46
_exptl_crystal_density_diffrn 3.04
_diffrn_ambient_temperature 90.
_citation_title

;
Crystal structures, Raman spectroscopy, and magnetic properties of Ba7.5 Al13
Si29 and Eu0.27 Ba7.22 Al13 Si29
;
loop_
_citation_id
_citation_journal_full
_citation_year
_citation_journal_volume
_citation_page_first
_citation_page_last
_citation_journal_id_ASTM
primary 'Inorganic Chemistry' 2005 44 9185 9191 INOCAJ
loop_
_citation_author_citation_id
_citation_author_name
primary 'Condron, C.L.'
primary 'Porter, R.'
primary 'Guo, T.'
primary 'Kauzlarich, S.M.'
_cell_length_a 10.6306(12)
_cell_length_b 10.6306(12)
_cell_length_c 10.6306(12)
_cell_angle_alpha 90.
_cell_angle_beta 90.
_cell_angle_gamma 90.
_cell_volume 1201.36
_cell_formula_units_Z 1
_space_group_name_H-M_alt 'P m -3 n'
_space_group_IT_number 223
loop_
_space_group_symop_id
_space_group_symop_operation_xyz
1 'z+1/2, -y+1/2, x+1/2'
2 'y+1/2, -x+1/2, z+1/2'
3 'x+1/2, -z+1/2, y+1/2'
4 '-z+1/2, y+1/2, -x+1/2'
5 '-y+1/2, x+1/2, -z+1/2'
6 '-x+1/2, z+1/2, -y+1/2'
7 'z+1/2, y+1/2, -x+1/2'
8 'y+1/2, x+1/2, -z+1/2'
9 'x+1/2, z+1/2, -y+1/2'
10 '-z+1/2, -y+1/2, x+1/2'
11 '-y+1/2, -x+1/2, z+1/2'
12 '-x+1/2, -z+1/2, y+1/2'
13 '-z+1/2, y+1/2, x+1/2'
14 '-y+1/2, x+1/2, z+1/2'
15 '-x+1/2, z+1/2, y+1/2'
16 'z+1/2, -y+1/2, -x+1/2'
17 'y+1/2, -x+1/2, -z+1/2'
18 'x+1/2, -z+1/2, -y+1/2'
19 '-z+1/2, -y+1/2, -x+1/2'
20 '-y+1/2, -x+1/2, -z+1/2'
21 '-x+1/2, -z+1/2, -y+1/2'
22 'z+1/2, y+1/2, x+1/2'
23 'y+1/2, x+1/2, z+1/2'
24 'x+1/2, z+1/2, y+1/2'
25 'z, x, -y'
26 'y, z, -x'
27 'x, y, -z'
28 '-z, -x, y'
29 '-y, -z, x'
30 '-x, -y, z'
31 'z, -x, y'
32 'y, -z, x'
33 'x, -y, z'
34 '-z, x, -y'
35 '-y, z, -x'
36 '-x, y, -z'
37 '-z, x, y'
38 '-y, z, x'
39 '-x, y, z'
40 'z, -x, -y'
41 'y, -z, -x'
42 'x, -y, -z'
43 '-z, -x, -y'
44 '-y, -z, -x'
45 '-x, -y, -z'
46 'z, x, y'
47 'y, z, x'
48 'x, y, z'
loop_
_atom_type_symbol
_atom_type_oxidation_number
Ba0+ 0
Eu0+ 0
Ba0+ 0
Al0+ 0
Si0+ 0
Al0+ 0
Si0+ 0
Al0+ 0
Si0+ 0
loop_
_atom_site_label
_atom_site_type_symbol
_atom_site_symmetry_multiplicity
_atom_site_Wyckoff_symbol
_atom_site_fract_x
_atom_site_fract_y
_atom_site_fract_z
_atom_site_U_iso_or_equiv
_atom_site_occupancy
Ba1 Ba0+ 2 a 0. 0. 0. 0.0066(2) 0.86(2)
Eu1 Eu0+ 2 a 0. 0. 0. 0.0066(2) 0.09(2)
Ba2 Ba0+ 6 c 0. 0.5 0.25 0.01789(17) 0.922(4)
Al1 Al0+ 6 d 0.25 0.5 0. 0.0089(4) 0.28
Si1 Si0+ 6 d 0.25 0.5 0. 0.0089(4) 0.63
Al2 Al0+ 16 i 0.18489(6) 0.18489(6) 0.18489(6) 0.0083(3) 0.28
Si2 Si0+ 16 i 0.18489(6) 0.18489(6) 0.18489(6) 0.0083(3) 0.63
Al3 Al0+ 24 k 0. 0.11735(8) 0.30521(8) 0.0072(2) 0.28
Si3 Si0+ 24 k 0. 0.11735(8) 0.30521(8) 0.0072(2) 0.63
loop_
_atom_site_aniso_label
_atom_site_aniso_type_symbol
_atom_site_aniso_U_11
_atom_site_aniso_U_22
_atom_site_aniso_U_33
_atom_site_aniso_U_12
_atom_site_aniso_U_13
_atom_site_aniso_U_23
Ba2 Ba0+ 0.02316(19) 0.02316(19) 0.0073(2) 0. 0. 0.
Al1 Al0+ 0.0094(8) 0.0087(5) 0.0087(5) 0. 0. 0.
Si1 Si0+ 0.0094(8) 0.0087(5) 0.0087(5) 0. 0. 0.
Al2 Al0+ 0.0083(3) 0.0083(3) 0.0083(3) 0. 0. 0.
Si2 Si0+ 0.0083(3) 0.0083(3) 0.0083(3) 0. 0. 0.
Al3 Al0+ 0.0076(4) 0.0082(4) 0.0060(4) 0. 0. 0.
Si3 Si0+ 0.0076(4) 0.0082(4) 0.0060(4) 0. 0. 0.
#End of TTdata_171242-ICSD