
#(C) 2025 by FIZ Karlsruhe - Leibniz Institute for Information Infrastructure.  All rights reserved.
data_255719-ICSD
_database_code_ICSD 255719
_audit_creation_date 2018-08-01
_chemical_name_common 'Rubidium thallium germanide (3.75/0.25/23)'
_chemical_formula_structural '(Rb3.75 Tl0.25) Ge23'
_chemical_formula_sum 'Ge23 Rb3.75 Tl0.25'
_chemical_name_structure_type K8Si46
_exptl_crystal_density_diffrn 5.36
_diffrn_ambient_temperature 295.
_citation_title
'New clathrates of Rb7.50(1)Tl0.50(1)Ge46 and K7.62(1)Tl0.38(1)Ge45.34(3)'
loop_
_citation_id
_citation_journal_full
_citation_year
_citation_journal_volume
_citation_page_first
_citation_page_last
_citation_journal_id_ASTM
primary 'RSC Advances' 2016 6 75269 75276 RSCACL
loop_
_citation_author_citation_id
_citation_author_name
primary 'Zhang, Hui'
primary 'Mu, Gang'
primary 'Huang, Fuqiang'
primary 'Xie, Xiaoming'
_cell_length_a 10.81559(7)
_cell_length_b 10.81559(7)
_cell_length_c 10.81559(7)
_cell_angle_alpha 90
_cell_angle_beta 90
_cell_angle_gamma 90
_cell_volume 1265.17
_cell_formula_units_Z 2
_space_group_name_H-M_alt 'P m -3 n'
_space_group_IT_number 223
loop_
_space_group_symop_id
_space_group_symop_operation_xyz
1 'z+1/2, -y+1/2, x+1/2'
2 'y+1/2, -x+1/2, z+1/2'
3 'x+1/2, -z+1/2, y+1/2'
4 '-z+1/2, y+1/2, -x+1/2'
5 '-y+1/2, x+1/2, -z+1/2'
6 '-x+1/2, z+1/2, -y+1/2'
7 'z+1/2, y+1/2, -x+1/2'
8 'y+1/2, x+1/2, -z+1/2'
9 'x+1/2, z+1/2, -y+1/2'
10 '-z+1/2, -y+1/2, x+1/2'
11 '-y+1/2, -x+1/2, z+1/2'
12 '-x+1/2, -z+1/2, y+1/2'
13 '-z+1/2, y+1/2, x+1/2'
14 '-y+1/2, x+1/2, z+1/2'
15 '-x+1/2, z+1/2, y+1/2'
16 'z+1/2, -y+1/2, -x+1/2'
17 'y+1/2, -x+1/2, -z+1/2'
18 'x+1/2, -z+1/2, -y+1/2'
19 '-z+1/2, -y+1/2, -x+1/2'
20 '-y+1/2, -x+1/2, -z+1/2'
21 '-x+1/2, -z+1/2, -y+1/2'
22 'z+1/2, y+1/2, x+1/2'
23 'y+1/2, x+1/2, z+1/2'
24 'x+1/2, z+1/2, y+1/2'
25 'z, x, -y'
26 'y, z, -x'
27 'x, y, -z'
28 '-z, -x, y'
29 '-y, -z, x'
30 '-x, -y, z'
31 'z, -x, y'
32 'y, -z, x'
33 'x, -y, z'
34 '-z, x, -y'
35 '-y, z, -x'
36 '-x, y, -z'
37 '-z, x, y'
38 '-y, z, x'
39 '-x, y, z'
40 'z, -x, -y'
41 'y, -z, -x'
42 'x, -y, -z'
43 '-z, -x, -y'
44 '-y, -z, -x'
45 '-x, -y, -z'
46 'z, x, y'
47 'y, z, x'
48 'x, y, z'
loop_
_atom_type_symbol
_atom_type_oxidation_number
Rb0+ 0
Tl0+ 0
Rb0+ 0
Ge0+ 0
loop_
_atom_site_label
_atom_site_type_symbol
_atom_site_symmetry_multiplicity
_atom_site_Wyckoff_symbol
_atom_site_fract_x
_atom_site_fract_y
_atom_site_fract_z
_atom_site_U_iso_or_equiv
_atom_site_occupancy
Rb1 Rb0+ 2 a 0 0 0 0.01115(4) 0.750(4)
Tl1 Tl0+ 2 a 0 0 0 0.01115(4) 0.250(4)
Rb2 Rb0+ 6 c 0.25 0 0.5 0.02102(4) 1.
Ge1 Ge0+ 6 d 0.25 0.5 0 0.01207(4) 1.
Ge2 Ge0+ 16 i 0.18341(8) 0.18341 0.18341 0.01758(4) 1.
Ge3 Ge0+ 24 k 0 0.1194(1) 0.3070(1) 0.02311(4) 1.
#End of TTdata_255719-ICSD