
#(C) 2025 by FIZ Karlsruhe - Leibniz Institute for Information Infrastructure.  All rights reserved.
data_186989-ICSD
_database_code_ICSD 186989
_audit_creation_date 2013-08-01
_chemical_name_common 'Barium rhodium silicon (8/2.74/42.61)'
_chemical_formula_structural 'Ba8 Rh2.74 Si42.61'
_chemical_formula_sum 'Ba8 Rh2.74 Si42.61'
_chemical_name_structure_type K8Si46
_exptl_crystal_density_diffrn 3.86
_diffrn_ambient_temperature 295.
_citation_title

;
Synthesis, crystal structure and physical properties of the clathrate-I phase
Ba8 Rhx Si46-x-y (vac)y
;
loop_
_citation_id
_citation_journal_full
_citation_year
_citation_journal_volume
_citation_page_first
_citation_page_last
_citation_journal_id_ASTM
primary 'Dalton Transactions' 2012 41 13960 13968 DTARAF
loop_
_citation_author_citation_id
_citation_author_name
primary 'Jung, Walter'
primary 'Kessens, Heike'
primary 'Ormeci, Alim'
primary 'Schnelle, Walter'
primary 'Burkhardt, Ulrich'
primary 'Borrmann, Horst'
primary 'Nguyen, Hong Duong'
primary 'Baitinger, Michael'
primary 'Grin, Yuri'
_cell_length_a 10.347(1)
_cell_length_b 10.347(1)
_cell_length_c 10.347(1)
_cell_angle_alpha 90.
_cell_angle_beta 90.
_cell_angle_gamma 90.
_cell_volume 1107.75
_cell_formula_units_Z 1
_space_group_name_H-M_alt 'P m -3 n'
_space_group_IT_number 223
loop_
_space_group_symop_id
_space_group_symop_operation_xyz
1 'z+1/2, -y+1/2, x+1/2'
2 'y+1/2, -x+1/2, z+1/2'
3 'x+1/2, -z+1/2, y+1/2'
4 '-z+1/2, y+1/2, -x+1/2'
5 '-y+1/2, x+1/2, -z+1/2'
6 '-x+1/2, z+1/2, -y+1/2'
7 'z+1/2, y+1/2, -x+1/2'
8 'y+1/2, x+1/2, -z+1/2'
9 'x+1/2, z+1/2, -y+1/2'
10 '-z+1/2, -y+1/2, x+1/2'
11 '-y+1/2, -x+1/2, z+1/2'
12 '-x+1/2, -z+1/2, y+1/2'
13 '-z+1/2, y+1/2, x+1/2'
14 '-y+1/2, x+1/2, z+1/2'
15 '-x+1/2, z+1/2, y+1/2'
16 'z+1/2, -y+1/2, -x+1/2'
17 'y+1/2, -x+1/2, -z+1/2'
18 'x+1/2, -z+1/2, -y+1/2'
19 '-z+1/2, -y+1/2, -x+1/2'
20 '-y+1/2, -x+1/2, -z+1/2'
21 '-x+1/2, -z+1/2, -y+1/2'
22 'z+1/2, y+1/2, x+1/2'
23 'y+1/2, x+1/2, z+1/2'
24 'x+1/2, z+1/2, y+1/2'
25 'z, x, -y'
26 'y, z, -x'
27 'x, y, -z'
28 '-z, -x, y'
29 '-y, -z, x'
30 '-x, -y, z'
31 'z, -x, y'
32 'y, -z, x'
33 'x, -y, z'
34 '-z, x, -y'
35 '-y, z, -x'
36 '-x, y, -z'
37 '-z, x, y'
38 '-y, z, x'
39 '-x, y, z'
40 'z, -x, -y'
41 'y, -z, -x'
42 'x, -y, -z'
43 '-z, -x, -y'
44 '-y, -z, -x'
45 '-x, -y, -z'
46 'z, x, y'
47 'y, z, x'
48 'x, y, z'
loop_
_atom_type_symbol
_atom_type_oxidation_number
Ba0+ 0
Si0+ 0
Rh0+ 0
Si0+ 0
loop_
_atom_site_label
_atom_site_type_symbol
_atom_site_symmetry_multiplicity
_atom_site_Wyckoff_symbol
_atom_site_fract_x
_atom_site_fract_y
_atom_site_fract_z
_atom_site_U_iso_or_equiv
_atom_site_occupancy
Ba1 Ba0+ 2 a 0 0 0 0.01031(5) 1.
Ba2 Ba0+ 24 k 0.248(2) 0.5133(5) 0 0.0191(6) 0.25
Si1 Si0+ 6 c 0.25 0 0.5 0.00874(10) 0.434(8)
Rh1 Rh0+ 6 c 0.25 0 0.5 0.00874(10) 0.4567
Si2 Si0+ 16 i 0.18461(4) 0.18461 0.18461 0.00943(7) 1.
Si3 Si0+ 24 k 0 0.31012(5) 0.12114(6) 0.0110(1) 1.
loop_
_atom_site_aniso_label
_atom_site_aniso_type_symbol
_atom_site_aniso_U_11
_atom_site_aniso_U_22
_atom_site_aniso_U_33
_atom_site_aniso_U_12
_atom_site_aniso_U_13
_atom_site_aniso_U_23
Ba1 Ba0+ 0.01031(9) 0.01031(9) 0.01031(9) 0 0 0
Ba2 Ba0+ 0.0143(6) 0.0177(7) 0.0252(14) 0.0016(9) 0 0
Si1 Si0+ 0.0094(2) 0.0084(1) 0.0084(1) 0 0 0
Rh1 Rh0+ 0.0094(2) 0.0084(1) 0.0084(1) 0 0 0
Si2 Si0+ 0.0094(1) 0.0094(1) 0.0094(1) -0.0009(1) -0.0009(1) -0.0009(1)
Si3 Si0+ 0.0093(2) 0.0106(2) 0.0131(2) 0 0 0.0017(2)
#End of TTdata_186989-ICSD