
#(C) 2024 by FIZ Karlsruhe - Leibniz Institute for Information Infrastructure.  All rights reserved.
data_422-ICSD
_database_code_ICSD 422
_audit_creation_date 1980-01-01
_audit_update_record 2000-07-15
_chemical_name_common 'Strontium silicide (2/1)'
_chemical_formula_structural 'Sr2 Si'
_chemical_formula_sum 'Si1 Sr2'
_chemical_name_structure_type TiNiSi#MgSrSi
_exptl_crystal_density_diffrn 3.39
_citation_title 'Darstellung und Kristallstruktur des Sr2 Si'
loop_
_citation_id
_citation_journal_full
_citation_year
_citation_journal_volume
_citation_page_first
_citation_page_last
_citation_journal_id_ASTM
primary

;
Zeitschrift fuer Naturforschung, Teil B: Anorganische Chemie, Organische
Chemie, Biochemie, Biophysik, Biologie
; 1976 31 520 521 ZENBAX
loop_
_citation_author_citation_id
_citation_author_name
primary 'Widera, A.'
primary 'Eisenmann, B.'
primary 'Schaefer, H.'
_cell_length_a 8.11
_cell_length_b 5.15
_cell_length_c 9.54
_cell_angle_alpha 90.
_cell_angle_beta 90.
_cell_angle_gamma 90.
_cell_volume 398.45
_cell_formula_units_Z 4
_space_group_name_H-M_alt 'P n m a'
_space_group_IT_number 62
loop_
_space_group_symop_id
_space_group_symop_operation_xyz
1 'x+1/2, y, -z+1/2'
2 'x, -y+1/2, z'
3 '-x+1/2, y+1/2, z+1/2'
4 '-x, -y, -z'
5 '-x+1/2, -y, z+1/2'
6 '-x, y+1/2, -z'
7 'x+1/2, -y+1/2, -z+1/2'
8 'x, y, z'
loop_
_atom_type_symbol
_atom_type_oxidation_number
Sr0+ 0
Si0+ 0
loop_
_atom_site_label
_atom_site_type_symbol
_atom_site_symmetry_multiplicity
_atom_site_Wyckoff_symbol
_atom_site_fract_x
_atom_site_fract_y
_atom_site_fract_z
_atom_site_U_iso_or_equiv
_atom_site_occupancy
Sr1 Sr0+ 4 c 0.6529(6) 0.25 0.0769(5) 0.015(1) 1.
Sr2 Sr0+ 4 c 0.5192(6) 0.25 0.6748(5) 0.017(1) 1.
Si1 Si0+ 4 c 0.2539(16) 0.25 0.1028(14) 0.012(3) 1.
#End of TTdata_422-ICSD