
#(C) 2025 by FIZ Karlsruhe - Leibniz Institute for Information Infrastructure.  All rights reserved.
data_161949-ICSD
_database_code_ICSD 161949
_audit_creation_date 2009-02-01
_chemical_name_common
'Barium gallium tin (8/16/30) - beta (type I clathrate, n-type)'
_chemical_formula_structural 'Ba8 Ga16 Sn30'
_chemical_formula_sum 'Ba8 Ga16 Sn30'
_chemical_name_structure_type K8Si46
_exptl_crystal_density_diffrn 6.01
_diffrn_ambient_temperature 300.
_citation_title

;
Simultaneous structure and carrier tuning of dimorphic clathrate Ba8 Ga16 Sn30
;
loop_
_citation_id
_citation_journal_full
_citation_year
_citation_journal_volume
_citation_page_first
_citation_page_last
_citation_journal_id_ASTM
primary 'Physical Review B: Condensed Matter and Materials Physics' 2008 77 1 8
PRBMDO
loop_
_citation_author_citation_id
_citation_author_name
primary 'Suekuni, K.'
primary 'Avila, M.A.'
primary 'Umeo, K.'
primary 'Fukuoka, H.'
primary 'Yamanaka, S.'
primary 'Nakagawa, T.'
primary 'Takabatake, T.'
_cell_length_a 11.685(3)
_cell_length_b 11.685(3)
_cell_length_c 11.685(3)
_cell_angle_alpha 90.
_cell_angle_beta 90.
_cell_angle_gamma 90.
_cell_volume 1595.46
_cell_formula_units_Z 1
_space_group_name_H-M_alt 'P m -3 n'
_space_group_IT_number 223
loop_
_space_group_symop_id
_space_group_symop_operation_xyz
1 'z+1/2, -y+1/2, x+1/2'
2 'y+1/2, -x+1/2, z+1/2'
3 'x+1/2, -z+1/2, y+1/2'
4 '-z+1/2, y+1/2, -x+1/2'
5 '-y+1/2, x+1/2, -z+1/2'
6 '-x+1/2, z+1/2, -y+1/2'
7 'z+1/2, y+1/2, -x+1/2'
8 'y+1/2, x+1/2, -z+1/2'
9 'x+1/2, z+1/2, -y+1/2'
10 '-z+1/2, -y+1/2, x+1/2'
11 '-y+1/2, -x+1/2, z+1/2'
12 '-x+1/2, -z+1/2, y+1/2'
13 '-z+1/2, y+1/2, x+1/2'
14 '-y+1/2, x+1/2, z+1/2'
15 '-x+1/2, z+1/2, y+1/2'
16 'z+1/2, -y+1/2, -x+1/2'
17 'y+1/2, -x+1/2, -z+1/2'
18 'x+1/2, -z+1/2, -y+1/2'
19 '-z+1/2, -y+1/2, -x+1/2'
20 '-y+1/2, -x+1/2, -z+1/2'
21 '-x+1/2, -z+1/2, -y+1/2'
22 'z+1/2, y+1/2, x+1/2'
23 'y+1/2, x+1/2, z+1/2'
24 'x+1/2, z+1/2, y+1/2'
25 'z, x, -y'
26 'y, z, -x'
27 'x, y, -z'
28 '-z, -x, y'
29 '-y, -z, x'
30 '-x, -y, z'
31 'z, -x, y'
32 'y, -z, x'
33 'x, -y, z'
34 '-z, x, -y'
35 '-y, z, -x'
36 '-x, y, -z'
37 '-z, x, y'
38 '-y, z, x'
39 '-x, y, z'
40 'z, -x, -y'
41 'y, -z, -x'
42 'x, -y, -z'
43 '-z, -x, -y'
44 '-y, -z, -x'
45 '-x, -y, -z'
46 'z, x, y'
47 'y, z, x'
48 'x, y, z'
loop_
_atom_type_symbol
_atom_type_oxidation_number
Ba0+ 0
Ga0+ 0
Sn0+ 0
Ga0+ 0
Sn0+ 0
Ga0+ 0
Sn0+ 0
loop_
_atom_site_label
_atom_site_type_symbol
_atom_site_symmetry_multiplicity
_atom_site_Wyckoff_symbol
_atom_site_fract_x
_atom_site_fract_y
_atom_site_fract_z
_atom_site_U_iso_or_equiv
_atom_site_occupancy
Ba1 Ba0+ 2 a 0 0 0 0.0202(1) 1.
Ba2 Ba0+ 24 k 0.2437(4) 0.5 -0.03656(16) 0.0524(5) 0.25
Ga1 Ga0+ 6 c 0.25 0 0.5 0.0181(2) 0.707(4)
Sn1 Sn0+ 6 c 0.25 0 0.5 0.0181(2) 0.293(4)
Ga2 Ga0+ 16 i 0.18435(2) 0.18435(2) 0.18435(2) 0.0178(1) 0.356(3)
Sn2 Sn0+ 16 i 0.18435(2) 0.18435(2) 0.18435(2) 0.0178(1) 0.644(3)
Ga3 Ga0+ 24 k 0 0.31227(2) 0.11871(2) 0.0169(1) 0.252(2)
Sn3 Sn0+ 24 k 0 0.31227(2) 0.11871(2) 0.0169(1) 0.748(2)
#End of TTdata_161949-ICSD