
#(C) 2025 by FIZ Karlsruhe - Leibniz Institute for Information Infrastructure.  All rights reserved.
data_422585-ICSD
_database_code_ICSD 422585
_audit_creation_date 2016-02-01
_chemical_name_common 'Strontium gallium germanide (8/16/30)'
_chemical_formula_structural 'Sr8 Ga16 Ge30'
_chemical_formula_sum 'Ga16 Ge30 Sr8'
_chemical_name_structure_type K8Si46
_exptl_crystal_density_diffrn 5.45
_diffrn_ambient_temperature 20.
_diffrn_ambient_pressure 101325.
_citation_title

;
Quantitative relation between structure and thermal conductivity in type-I
clathrates X8 Ga16 Ge30 (X = Sr, Ba) based on electrostatic-potential analysis
;
loop_
_citation_id
_citation_journal_full
_citation_year
_citation_journal_volume
_citation_page_first
_citation_page_last
_citation_journal_id_ASTM
primary 'Physical Review B: Condensed Matter and Materials Physics' 2012 85 1 6
PRBMDO
loop_
_citation_author_citation_id
_citation_author_name
primary 'Fujiwara, Akihiko'
primary 'Sugimoto, Kunihisa'
primary 'Shih, Che-Hsiu'
primary 'Tanaka, Hiroshi'
primary 'Tang, Jun'
primary 'Tanabe, Yoichi'
primary 'Xu, Jingtao'
primary 'Heguri, Satoshi'
primary 'Tanigaki, Katsumi'
primary 'Takata, Masaki'
_cell_length_a 10.6739(3)
_cell_length_b 10.6739(3)
_cell_length_c 10.6739(3)
_cell_angle_alpha 90.
_cell_angle_beta 90.
_cell_angle_gamma 90.
_cell_volume 1216.1
_cell_formula_units_Z 1
_space_group_name_H-M_alt 'P m -3 n'
_space_group_IT_number 223
loop_
_space_group_symop_id
_space_group_symop_operation_xyz
1 'z+1/2, -y+1/2, x+1/2'
2 'y+1/2, -x+1/2, z+1/2'
3 'x+1/2, -z+1/2, y+1/2'
4 '-z+1/2, y+1/2, -x+1/2'
5 '-y+1/2, x+1/2, -z+1/2'
6 '-x+1/2, z+1/2, -y+1/2'
7 'z+1/2, y+1/2, -x+1/2'
8 'y+1/2, x+1/2, -z+1/2'
9 'x+1/2, z+1/2, -y+1/2'
10 '-z+1/2, -y+1/2, x+1/2'
11 '-y+1/2, -x+1/2, z+1/2'
12 '-x+1/2, -z+1/2, y+1/2'
13 '-z+1/2, y+1/2, x+1/2'
14 '-y+1/2, x+1/2, z+1/2'
15 '-x+1/2, z+1/2, y+1/2'
16 'z+1/2, -y+1/2, -x+1/2'
17 'y+1/2, -x+1/2, -z+1/2'
18 'x+1/2, -z+1/2, -y+1/2'
19 '-z+1/2, -y+1/2, -x+1/2'
20 '-y+1/2, -x+1/2, -z+1/2'
21 '-x+1/2, -z+1/2, -y+1/2'
22 'z+1/2, y+1/2, x+1/2'
23 'y+1/2, x+1/2, z+1/2'
24 'x+1/2, z+1/2, y+1/2'
25 'z, x, -y'
26 'y, z, -x'
27 'x, y, -z'
28 '-z, -x, y'
29 '-y, -z, x'
30 '-x, -y, z'
31 'z, -x, y'
32 'y, -z, x'
33 'x, -y, z'
34 '-z, x, -y'
35 '-y, z, -x'
36 '-x, y, -z'
37 '-z, x, y'
38 '-y, z, x'
39 '-x, y, z'
40 'z, -x, -y'
41 'y, -z, -x'
42 'x, -y, -z'
43 '-z, -x, -y'
44 '-y, -z, -x'
45 '-x, -y, -z'
46 'z, x, y'
47 'y, z, x'
48 'x, y, z'
loop_
_atom_type_symbol
_atom_type_oxidation_number
Sr0+ 0
Ga0+ 0
Ge0+ 0
Ga0+ 0
Ge0+ 0
Ga0+ 0
Ge0+ 0
loop_
_atom_site_label
_atom_site_type_symbol
_atom_site_symmetry_multiplicity
_atom_site_Wyckoff_symbol
_atom_site_fract_x
_atom_site_fract_y
_atom_site_fract_z
_atom_site_U_iso_or_equiv
_atom_site_occupancy
Sr1 Sr0+ 2 a 0. 0. 0. 0.00406(4) 1
Sr2 Sr0+ 6 d -0.25 0.5 0. 0.0139(3) 0.020(4)
Sr3 Sr0+ 24 j -0.25 0.4710(3) 0.0290(3) 0.0139(3) 0.0778(9)
Sr4 Sr0+ 24 k -0.25331(8) 0.45883(10) 0. 0.0139(3) 0.1688(6)
Ga1 Ga0+ 6 c 0. 0.5 0.25 0.00343(5) 0.3449(3)
Ge1 Ge0+ 6 c 0. 0.5 0.25 0.00343(5) 0.6467(6)
Ga2 Ga0+ 16 i 0.184023(7) 0.184023(7) 0.184023(7) 0.00335(2) 0.3501(2)
Ge2 Ge0+ 16 i 0.184023(7) 0.184023(7) 0.184023(7) 0.00335(2) 0.6565(5)
Ga3 Ga0+ 24 k 0. 0.309270(11) 0.117099(11) 0.00367(2) 0.3483(2)
Ge3 Ge0+ 24 k 0. 0.309270(11) 0.117099(11) 0.00367(2) 0.6530(4)
loop_
_atom_site_aniso_label
_atom_site_aniso_type_symbol
_atom_site_aniso_U_11
_atom_site_aniso_U_22
_atom_site_aniso_U_33
_atom_site_aniso_U_12
_atom_site_aniso_U_13
_atom_site_aniso_U_23
Sr1 Sr0+ 0.00406(4) 0.00406(4) 0.00406(4) 0. 0. 0.
Sr2 Sr0+ 0.00609(14) 0.0177(4) 0.0177(4) 0. 0. 0.
Sr3 Sr0+ 0.00609(14) 0.0177(4) 0.0177(4) 0. 0. 0.
Sr4 Sr0+ 0.00609(14) 0.0177(4) 0.0177(4) 0. 0. 0.
Ga1 Ga0+ 0.00327(6) 0.00327(6) 0.00374(9) 0. 0. 0.
Ge1 Ge0+ 0.00327(6) 0.00327(6) 0.00374(9) 0. 0. 0.
Ga2 Ga0+ 0.00335(2) 0.00335(2) 0.00335(2) -0.00043(2) -0.00043(2) -0.00043(2)
Ge2 Ge0+ 0.00335(2) 0.00335(2) 0.00335(2) -0.00043(2) -0.00043(2) -0.00043(2)
Ga3 Ga0+ 0.00417(4) 0.00335(4) 0.00349(4) 0. 0. -0.00048(3)
Ge3 Ge0+ 0.00417(4) 0.00335(4) 0.00349(4) 0. 0. -0.00048(3)
#End of TTdata_422585-ICSD