
#(C) 2025 by FIZ Karlsruhe - Leibniz Institute for Information Infrastructure.  All rights reserved.
data_248887-ICSD
_database_code_ICSD 248887
_audit_creation_date 2015-02-01
_chemical_name_common 'Silicon phosphorus telluride selenide (30/16/6.75/1.25)'
_chemical_formula_structural '(Si30 P16) (Te6.75 Se1.25)'
_chemical_formula_sum 'P16 Se1.25 Si30 Te6.75'
_chemical_name_structure_type K8Si46
_exptl_crystal_density_diffrn 3.86
_diffrn_ambient_temperature 143.
_citation_title

;
Homo- and heterovalent substitutions in the new clathrates I Si30 P16 Te8-x
Sex and Si30+x P16-x Te8-x Brx: synthesis, crystal structure, and
thermoelectric properties
;
loop_
_citation_id
_citation_journal_full
_citation_year
_citation_journal_volume
_citation_page_first
_citation_page_last
_citation_journal_id_ASTM
primary 'Inorganic Chemistry' 2012 51 11396 11405 INOCAJ
loop_
_citation_author_citation_id
_citation_author_name
primary 'Abramchuk, Nikolay S.'
primary 'Carrillo-Cabrera, Wilder'
primary 'Veremchuk, Igor'
primary 'Oeschler, Niels'
primary 'Olenev, Andrei V.'
primary 'Prots, Yurii'
primary 'Burkhardt, Ulrich'
primary 'Dikarev, Evgeny V.'
primary 'Grin, Juri'
primary 'Shevelkov, Andrei V.'
_cell_length_a 9.9577(11)
_cell_length_b 9.9577(11)
_cell_length_c 9.9577(11)
_cell_angle_alpha 90.
_cell_angle_beta 90.
_cell_angle_gamma 90.
_cell_volume 987.36
_cell_formula_units_Z 1
_space_group_name_H-M_alt 'P m -3 n'
_space_group_IT_number 223
loop_
_space_group_symop_id
_space_group_symop_operation_xyz
1 'z+1/2, -y+1/2, x+1/2'
2 'y+1/2, -x+1/2, z+1/2'
3 'x+1/2, -z+1/2, y+1/2'
4 '-z+1/2, y+1/2, -x+1/2'
5 '-y+1/2, x+1/2, -z+1/2'
6 '-x+1/2, z+1/2, -y+1/2'
7 'z+1/2, y+1/2, -x+1/2'
8 'y+1/2, x+1/2, -z+1/2'
9 'x+1/2, z+1/2, -y+1/2'
10 '-z+1/2, -y+1/2, x+1/2'
11 '-y+1/2, -x+1/2, z+1/2'
12 '-x+1/2, -z+1/2, y+1/2'
13 '-z+1/2, y+1/2, x+1/2'
14 '-y+1/2, x+1/2, z+1/2'
15 '-x+1/2, z+1/2, y+1/2'
16 'z+1/2, -y+1/2, -x+1/2'
17 'y+1/2, -x+1/2, -z+1/2'
18 'x+1/2, -z+1/2, -y+1/2'
19 '-z+1/2, -y+1/2, -x+1/2'
20 '-y+1/2, -x+1/2, -z+1/2'
21 '-x+1/2, -z+1/2, -y+1/2'
22 'z+1/2, y+1/2, x+1/2'
23 'y+1/2, x+1/2, z+1/2'
24 'x+1/2, z+1/2, y+1/2'
25 'z, x, -y'
26 'y, z, -x'
27 'x, y, -z'
28 '-z, -x, y'
29 '-y, -z, x'
30 '-x, -y, z'
31 'z, -x, y'
32 'y, -z, x'
33 'x, -y, z'
34 '-z, x, -y'
35 '-y, z, -x'
36 '-x, y, -z'
37 '-z, x, y'
38 '-y, z, x'
39 '-x, y, z'
40 'z, -x, -y'
41 'y, -z, -x'
42 'x, -y, -z'
43 '-z, -x, -y'
44 '-y, -z, -x'
45 '-x, -y, -z'
46 'z, x, y'
47 'y, z, x'
48 'x, y, z'
loop_
_atom_type_symbol
_atom_type_oxidation_number
Te0+ 0
Se0+ 0
P0+ 0
Si0+ 0
loop_
_atom_site_label
_atom_site_type_symbol
_atom_site_symmetry_multiplicity
_atom_site_Wyckoff_symbol
_atom_site_fract_x
_atom_site_fract_y
_atom_site_fract_z
_atom_site_U_iso_or_equiv
_atom_site_occupancy
Te1 Te0+ 6 c 0. 0.5 0.25 0.01215(18) 1
Te2 Te0+ 2 a 0. 0. 0. 0.0094(3) 0.373(12)
Se1 Se0+ 2 a 0. 0. 0. 0.0094(3) 0.628(12)
P1 P0+ 16 i 0.18403(6) 0.18403(6) 0.18403(6) 0.0076(2) 1
Si1 Si0+ 24 k 0. 0.11718(9) 0.30871(8) 0.0070(2) 1
Si2 Si0+ 6 d 0. 0.25 0.5 0.0034(4) 1
loop_
_atom_site_aniso_label
_atom_site_aniso_type_symbol
_atom_site_aniso_U_11
_atom_site_aniso_U_22
_atom_site_aniso_U_33
_atom_site_aniso_U_12
_atom_site_aniso_U_13
_atom_site_aniso_U_23
Te1 Te0+ 0.0120(2) 0.0120(2) 0.0124(3) 0. 0. 0.
Te2 Te0+ 0.0094(3) 0.0094(3) 0.0094(3) 0. 0. 0.
Se1 Se0+ 0.0094(3) 0.0094(3) 0.0094(3) 0. 0. 0.
P1 P0+ 0.0076(2) 0.0076(2) 0.0076(2) -0.0004(2) -0.0004(2) -0.0004(2)
Si1 Si0+ 0.0071(4) 0.0066(4) 0.0072(4) 0. 0. -0.0014(3)
Si2 Si0+ 0.0031(5) 0.0041(8) 0.0031(5) 0. 0. 0.
#End of TTdata_248887-ICSD