#######################################################################
#
# This file contains crystal structure data downloaded from the
# Cambridge Structural Database (CSD) hosted by the Cambridge
# Crystallographic Data Centre (CCDC).
#
# Full information about CCDC data access policies and citation
# guidelines are available at http://www.ccdc.cam.ac.uk/access/V1
#
# Audit and citation data items may have been added by the CCDC.
# Please retain this information to preserve the provenance of
# this file and to allow appropriate attribution of the data.
#
#######################################################################

data_spot62dafi3
_audit_block_doi                 10.5517/ccdc.csd.cc2jgzll
_database_code_depnum_ccdc_archive 'CCDC 2338100'
loop_
_audit_author_name
_audit_author_address
'Piotr A. Gunka'
;Warsaw University of Technology, Faculty of Chemistry
Poland
;
_audit_update_record
;
2024-03-06 deposited with the CCDC.	2025-06-23 downloaded from the CCDC.
;
_audit_creation_date             2024-02-29
_audit_creation_method
;
Olex2 1.5
(compiled 2023.08.24 svn.re1ec1418 for OlexSys, GUI svn.r6817)
;
_shelx_SHELXL_version_number     2019/3
_chemical_name_common            ?
_chemical_name_systematic        ?
_chemical_formula_moiety         'C37.12 B8.88, 8(Ca)'
_chemical_formula_sum            'C37.12 B8.88 Ca8'
_chemical_formula_weight         862.44
_chemical_melting_point          ?
_chemical_oxdiff_formula         'Ca B3C3'
loop_
_atom_type_symbol
_atom_type_description
_atom_type_scat_dispersion_real
_atom_type_scat_dispersion_imag
_atom_type_scat_source
B B -0.0005 0.0001 'International Tables Vol C Tables 4.2.6.8 and 6.1.1.4'
C C -0.0019 0.0002 'International Tables Vol C Tables 4.2.6.8 and 6.1.1.4'
Ca Ca 0.0444 0.0525 'International Tables Vol C Tables 4.2.6.8 and 6.1.1.4'

_shelx_space_group_comment
;
The symmetry employed for this shelxl refinement is uniquely defined
by the following loop, which should always be used as a source of
symmetry information in preference to the above space-group names.
They are only intended as comments.
;
_space_group_crystal_system      cubic
_space_group_IT_number           223
_space_group_name_H-M_alt        'P m -3 n'
_space_group_name_Hall           '-P 4n 2 3'
loop_
_space_group_symop_operation_xyz
'x, y, z'
'-x, -y, z'
'-x, y, -z'
'x, -y, -z'
'z, x, y'
'z, -x, -y'
'-z, -x, y'
'-z, x, -y'
'y, z, x'
'-y, z, -x'
'y, -z, -x'
'-y, -z, x'
'y+1/2, x+1/2, -z+1/2'
'-y+1/2, -x+1/2, -z+1/2'
'y+1/2, -x+1/2, z+1/2'
'-y+1/2, x+1/2, z+1/2'
'x+1/2, z+1/2, -y+1/2'
'-x+1/2, z+1/2, y+1/2'
'-x+1/2, -z+1/2, -y+1/2'
'x+1/2, -z+1/2, y+1/2'
'z+1/2, y+1/2, -x+1/2'
'z+1/2, -y+1/2, x+1/2'
'-z+1/2, y+1/2, x+1/2'
'-z+1/2, -y+1/2, -x+1/2'
'-x, -y, -z'
'x, y, -z'
'x, -y, z'
'-x, y, z'
'-z, -x, -y'
'-z, x, y'
'z, x, -y'
'z, -x, y'
'-y, -z, -x'
'y, -z, x'
'-y, z, x'
'y, z, -x'
'-y-1/2, -x-1/2, z-1/2'
'y-1/2, x-1/2, z-1/2'
'-y-1/2, x-1/2, -z-1/2'
'y-1/2, -x-1/2, -z-1/2'
'-x-1/2, -z-1/2, y-1/2'
'x-1/2, -z-1/2, -y-1/2'
'x-1/2, z-1/2, y-1/2'
'-x-1/2, z-1/2, -y-1/2'
'-z-1/2, -y-1/2, x-1/2'
'-z-1/2, y-1/2, -x-1/2'
'z-1/2, -y-1/2, -x-1/2'
'z-1/2, y-1/2, x-1/2'

_cell_length_a                   7.0464(12)
_cell_length_b                   7.0464(12)
_cell_length_c                   7.0464(12)
_cell_angle_alpha                90
_cell_angle_beta                 90
_cell_angle_gamma                90
_cell_volume                     349.87(18)
_cell_formula_units_Z            1
_cell_measurement_reflns_used    305
_cell_measurement_temperature    293(2)
_cell_measurement_theta_max      14.8790
_cell_measurement_theta_min      1.7190
_shelx_estimated_absorpt_T_max   0.999
_shelx_estimated_absorpt_T_min   0.999
_exptl_absorpt_coefficient_mu    0.299
_exptl_absorpt_correction_T_max  1.00000
_exptl_absorpt_correction_T_min  0.45046
_exptl_absorpt_correction_type   multi-scan
_exptl_absorpt_process_details
;
CrysAlisPro 1.171.43.60a (Rigaku Oxford Diffraction, 2023)
Empirical absorption correction using spherical harmonics,
implemented in SCALE3 ABSPACK scaling algorithm.
;
_exptl_absorpt_special_details   ?
_exptl_crystal_colour            black
_exptl_crystal_colour_primary    black
_exptl_crystal_density_diffrn    4.094
_exptl_crystal_density_meas      ?
_exptl_crystal_density_method    ?
_exptl_crystal_description       irregular
_exptl_crystal_F_000             427
_exptl_crystal_size_max          0.005
_exptl_crystal_size_mid          0.005
_exptl_crystal_size_min          0.005
_exptl_transmission_factor_max   ?
_exptl_transmission_factor_min   ?
_diffrn_reflns_av_R_equivalents  0.0586
_diffrn_reflns_av_unetI/netI     0.0297
_diffrn_reflns_Laue_measured_fraction_full 1.000
_diffrn_reflns_Laue_measured_fraction_max 0.942
_diffrn_reflns_limit_h_max       10
_diffrn_reflns_limit_h_min       -11
_diffrn_reflns_limit_k_max       11
_diffrn_reflns_limit_k_min       -12
_diffrn_reflns_limit_l_max       11
_diffrn_reflns_limit_l_min       -11
_diffrn_reflns_number            2324
_diffrn_reflns_point_group_measured_fraction_full 1.000
_diffrn_reflns_point_group_measured_fraction_max 0.942
_diffrn_reflns_theta_full        10.202
_diffrn_reflns_theta_max         15.117
_diffrn_reflns_theta_min         1.698
_diffrn_ambient_temperature      293(2)
_diffrn_detector                 'Hybrid Pixel Array Detector'
_diffrn_detector_area_resol_mean 5.8140
_diffrn_measured_fraction_theta_full 1.000
_diffrn_measured_fraction_theta_max 0.942
_diffrn_measurement_details
;
List of Runs (angles in degrees, time in seconds):

  # Type    Start    End  Width  t~exp~   \w     \q     \k     \f   Frames
#--------------------------------------------------------------------------
  1  \w    -32.00  32.00   0.50    4.95    --    0.00   0.00   0.00  128
;
_diffrn_measurement_device       'abstract diffractometer'
_diffrn_measurement_device_type
'esperanto-CrysAlisPro-abstract goniometer imported esperanto images'
_diffrn_measurement_method       '\w scans'
_diffrn_orient_matrix_axis[1]    matrixX
_diffrn_orient_matrix_axis[2]    matrixY
_diffrn_orient_matrix_axis[3]    matrixZ
_diffrn_orient_matrix_type
'CrysAlisPro convention (1999,Acta A55,543-557)'
_diffrn_orient_matrix_UB_11      -0.0380572000
_diffrn_orient_matrix_UB_12      -0.0041763000
_diffrn_orient_matrix_UB_13      -0.0172371000
_diffrn_orient_matrix_UB_21      0.0163768000
_diffrn_orient_matrix_UB_22      0.0067769000
_diffrn_orient_matrix_UB_23      -0.0379242000
_diffrn_orient_matrix_UB_31      0.0065062000
_diffrn_orient_matrix_UB_32      -0.0411487000
_diffrn_orient_matrix_UB_33      -0.0045007000
_diffrn_radiation_monochromator  synchrotron
_diffrn_radiation_probe          x-ray
_diffrn_radiation_type           synchrotron
_diffrn_radiation_wavelength     0.2952
_diffrn_source                   synchrotron
_reflns_Friedel_coverage         0.000
_reflns_Friedel_fraction_full    .
_reflns_Friedel_fraction_max     .
_reflns_number_gt                157
_reflns_number_total             195
_reflns_special_details
;
 Reflections were merged by SHELXL according to the crystal
 class for the calculation of statistics and refinement.

 _reflns_Friedel_fraction is defined as the number of unique
 Friedel pairs measured divided by the number that would be
 possible theoretically, ignoring centric projections and
 systematic absences.
;
_reflns_threshold_expression     'I > 2\s(I)'
_computing_cell_refinement       'CrysAlisPro 1.171.43.60a (Rigaku OD, 2023)'
_computing_data_collection
'CrysAlisPro 1.171.43.60a (Rigaku OD, 2023) (IMPORT)'
_computing_data_reduction        'CrysAlisPro 1.171.43.60a (Rigaku OD, 2023)'
_computing_molecular_graphics    'Olex2 1.5 (Dolomanov et al., 2009)'
_computing_publication_material  'Olex2 1.5 (Dolomanov et al., 2009)'
_computing_structure_refinement  'SHELXL 2019/3 (Sheldrick, 2015)'
_computing_structure_solution    'SHELXT  (Sheldrick, 2015)'
_refine_diff_density_max         0.621
_refine_diff_density_min         -0.530
_refine_diff_density_rms         0.142
_refine_ls_extinction_coef       .
_refine_ls_extinction_method     none
_refine_ls_goodness_of_fit_ref   1.154
_refine_ls_hydrogen_treatment    undef
_refine_ls_matrix_type           full
_refine_ls_number_parameters     16
_refine_ls_number_reflns         195
_refine_ls_number_restraints     0
_refine_ls_R_factor_all          0.0456
_refine_ls_R_factor_gt           0.0316
_refine_ls_restrained_S_all      1.154
_refine_ls_shift/su_max          0.000
_refine_ls_shift/su_mean         0.000
_refine_ls_structure_factor_coef Fsqd
_refine_ls_weighting_details
'w=1/[\s^2^(Fo^2^)+(0.0306P)^2^+0.5799P] where P=(Fo^2^+2Fc^2^)/3'
_refine_ls_weighting_scheme      calc
_refine_ls_wR_factor_gt          0.0661
_refine_ls_wR_factor_ref         0.0719
_refine_special_details          ?
_olex2_refinement_description
;
1. Shared sites
{C3, B3}
2. Uiso/Uaniso restraints and constraints
Uanis(C3) = Uanis(B3)
3. Others
 Sof(B3)=0.5*(1-FVAR(2))
 Sof(C3)=0.5*FVAR(2)
;
_atom_sites_solution_hydrogens   .
_atom_sites_solution_primary     dual
_atom_sites_solution_secondary   ?
loop_
_atom_site_label
_atom_site_type_symbol
_atom_site_symmetry_multiplicity
_atom_site_Wyckoff_symbol
_atom_site_fract_x
_atom_site_fract_y
_atom_site_fract_z
_atom_site_U_iso_or_equiv
_atom_site_adp_type
_atom_site_occupancy
_atom_site_site_symmetry_order
_atom_site_calc_flag
_atom_site_refinement_flags_posn
_atom_site_refinement_flags_adp
_atom_site_refinement_flags_occupancy
_atom_site_disorder_assembly
_atom_site_disorder_group
Ca1 Ca 2 a 0.000000 0.000000 0.000000 0.0038(3) Uani 1 24 d S T P . .
Ca2 Ca 6 d 0.250000 0.500000 0.000000 0.0055(2) Uani 1 8 d S T P . .
C1 C 6 c 0.500000 0.250000 0.000000 0.0072(6) Uani 1 8 d S T P . .
C2 C 16 i 0.18710(18) 0.18710(18) 0.18710(18) 0.0057(4) Uani 1 3 d S T P . .
B3 B 24 k 0.3043(3) 0.1258(3) 0.000000 0.0055(4) Uani 0.37(6) 2 d S T P A 2
C3 C 24 k 0.3043(3) 0.1258(3) 0.000000 0.0055(4) Uani 0.63(6) 2 d S T P A 1

loop_
_atom_site_aniso_label
_atom_site_aniso_U_11
_atom_site_aniso_U_22
_atom_site_aniso_U_33
_atom_site_aniso_U_23
_atom_site_aniso_U_13
_atom_site_aniso_U_12
Ca1 0.0038(3) 0.0038(3) 0.0038(3) 0.000 0.000 0.000
Ca2 0.0042(3) 0.0061(2) 0.0061(2) 0.000 0.000 0.000
C1 0.0073(9) 0.0071(15) 0.0073(9) 0.000 0.000 0.000
C2 0.0057(4) 0.0057(4) 0.0057(4) -0.0007(4) -0.0007(4) -0.0007(4)
B3 0.0055(7) 0.0067(8) 0.0043(8) 0.000 0.000 0.0002(5)
C3 0.0055(7) 0.0067(8) 0.0043(8) 0.000 0.000 0.0002(5)

_geom_special_details
;
 All esds (except the esd in the dihedral angle between two l.s. planes)
 are estimated using the full covariance matrix.  The cell esds are taken
 into account individually in the estimation of esds in distances, angles
 and torsion angles; correlations between esds in cell parameters are only
 used when they are defined by crystal symmetry.  An approximate (isotropic)
 treatment of cell esds is used for estimating esds involving l.s. planes.
;
loop_
_geom_bond_atom_site_label_1
_geom_bond_atom_site_label_2
_geom_bond_distance
_geom_bond_site_symmetry_2
_geom_bond_publ_flag
C1 B3 1.633(2) . ?
C1 B3 1.633(2) 47_666 ?
C1 B3 1.633(2) 3_655 ?
C1 B3 1.633(2) 45_665 ?
C1 C3 1.633(2) . ?
C2 C2 1.535(4) 14 ?
C2 B3 1.6148(14) 9 ?
C2 B3 1.6148(14) . ?
C2 B3 1.6148(14) 5 ?
C2 C3 1.6148(14) . ?
B3 B3 1.772(4) 27 ?

loop_
_geom_angle_atom_site_label_1
_geom_angle_atom_site_label_2
_geom_angle_atom_site_label_3
_geom_angle
_geom_angle_site_symmetry_1
_geom_angle_site_symmetry_3
_geom_angle_publ_flag
B3 C1 B3 106.70(6) . 47_666 ?
C3 C1 B3 115.17(13) . 3_655 ?
C3 C1 B3 106.70(6) . 45_665 ?
C3 C1 B3 106.70(6) . 47_666 ?
C2 C2 B3 109.30(10) 14 . ?
C2 C2 B3 109.30(10) 14 9 ?
C2 C2 B3 109.30(10) 14 5 ?
C2 C2 C3 109.30(10) 14 . ?
B3 C2 B3 109.64(10) 9 . ?
B3 C2 B3 109.64(10) 9 5 ?
B3 C2 B3 109.64(10) 5 . ?
C1 B3 B3 122.42(7) . 27 ?
C2 B3 C1 106.76(11) . . ?
C2 B3 C1 106.76(11) 26 . ?
C2 B3 C2 109.46(14) . 26 ?
C2 B3 B3 105.53(8) . 27 ?
C2 B3 B3 105.53(8) 26 27 ?
C2 C3 C1 106.76(11) 26 . ?
C2 C3 C1 106.76(11) . . ?
C2 C3 C2 109.46(14) . 26 ?

loop_
_geom_torsion_atom_site_label_1
_geom_torsion_atom_site_label_2
_geom_torsion_atom_site_label_3
_geom_torsion_atom_site_label_4
_geom_torsion
_geom_torsion_site_symmetry_1
_geom_torsion_site_symmetry_2
_geom_torsion_site_symmetry_3
_geom_torsion_site_symmetry_4
_geom_torsion_publ_flag
C2 C2 B3 C1 -9.14(10) 14 . . . ?
C2 C2 B3 C2 -124.35(12) 14 . . 26 ?
C2 C2 B3 B3 122.52(3) 14 . . 27 ?
C2 C2 C3 C1 -9.14(10) 14 . . . ?
C2 C2 C3 C2 -124.35(12) 14 . . 26 ?
B3 C1 B3 C2 -120.31(12) 45_665 . . . ?
B3 C1 B3 C2 120.31(12) 47_666 . . 26 ?
B3 C1 B3 C2 121.50(8) 3_655 . . . ?
B3 C1 B3 C2 -3.30(4) 45_665 . . 26 ?
B3 C1 B3 C2 3.30(4) 47_666 . . . ?
B3 C1 B3 C2 -121.50(8) 3_655 . . 26 ?
B3 C1 B3 B3 0.0 3_655 . . 27 ?
B3 C1 B3 B3 118.19(4) 45_665 . . 27 ?
B3 C1 B3 B3 -118.19(4) 47_666 . . 27 ?
B3 C2 B3 C1 -128.94(16) 9 . . . ?
B3 C2 B3 C1 110.65(16) 5 . . . ?
B3 C2 B3 C2 115.86(3) 9 . . 26 ?
B3 C2 B3 C2 -4.6(2) 5 . . 26 ?
B3 C2 B3 B3 2.73(15) 9 . . 27 ?
B3 C2 B3 B3 -117.68(10) 5 . . 27 ?

_shelx_res_file
;
TITL spot62dafi3_a.res in Pm-3n
    spot62dafi3.res
    created by SHELXL-2019/3 at 09:22:56 on 29-Feb-2024
REM Old TITL spot62DAFi3 in Pm-3n
REM SHELXT solution in Pm-3n: R1 0.037, Rweak 0.040, Alpha 0.046
REM <I/s> 0.304 for 21 systematic absences, Orientation as input
REM Formula found by SHELXT: C23 Ca4
CELL 0.2952 7.0464 7.0464 7.0464 90 90 90
ZERR 1 0.0012 0.0012 0.0012 0 0 0
LATT 1
SYMM -X,-Y,+Z
SYMM -X,+Y,-Z
SYMM +X,-Y,-Z
SYMM +Z,+X,+Y
SYMM +Z,-X,-Y
SYMM -Z,-X,+Y
SYMM -Z,+X,-Y
SYMM +Y,+Z,+X
SYMM -Y,+Z,-X
SYMM +Y,-Z,-X
SYMM -Y,-Z,+X
SYMM 0.5+Y,0.5+X,0.5-Z
SYMM 0.5-Y,0.5-X,0.5-Z
SYMM 0.5+Y,0.5-X,0.5+Z
SYMM 0.5-Y,0.5+X,0.5+Z
SYMM 0.5+X,0.5+Z,0.5-Y
SYMM 0.5-X,0.5+Z,0.5+Y
SYMM 0.5-X,0.5-Z,0.5-Y
SYMM 0.5+X,0.5-Z,0.5+Y
SYMM 0.5+Z,0.5+Y,0.5-X
SYMM 0.5+Z,0.5-Y,0.5+X
SYMM 0.5-Z,0.5+Y,0.5+X
SYMM 0.5-Z,0.5-Y,0.5-X
SFAC B C Ca
DISP B -0.0005 0.0001 3.1701
DISP C -0.0019 0.0002 4.0449
DISP Ca 0.0444 0.0525 108.5265
UNIT 8.83 37.17 8
EADP C3 B3
EXYZ C3 B3

L.S. 10
PLAN  20
SIZE 0.005 0.005 0.005
CONF
CONN 0 $Ca
LIST 4
MORE -1
fmap 2 53
acta
REM <olex2.extras>
REM <HklSrc "%.\\unmerged.hkl">
REM </olex2.extras>

WGHT    0.030600    0.579900
FVAR       1.01754   0.63391
CA1   3    0.000000    0.000000    0.000000    10.04167    0.00382    0.00382 =
         0.00382    0.00000    0.00000    0.00000
CA2   3    0.250000    0.500000    0.000000    10.12500    0.00419    0.00613 =
         0.00613    0.00000    0.00000    0.00000
C1    2    0.500000    0.250000    0.000000    10.12500    0.00726    0.00711 =
         0.00726    0.00000    0.00000    0.00000
C2    2    0.187100    0.187100    0.187100    10.33333    0.00567    0.00567 =
         0.00567   -0.00068   -0.00068   -0.00068
PART 2
B3    1    0.304340    0.125752    0.000000   -20.50000    0.00548    0.00674 =
         0.00434    0.00000    0.00000    0.00016

PART 1
C3    2    0.304340    0.125752    0.000000    20.50000    0.00548    0.00674 =
         0.00434    0.00000    0.00000    0.00016
HKLF 4




REM  spot62dafi3_a.res in Pm-3n
REM wR2 = 0.0719, GooF = S = 1.154, Restrained GooF = 1.154 for all data
REM R1 = 0.0316 for 157 Fo > 4sig(Fo) and 0.0456 for all 195 data
REM 16 parameters refined using 0 restraints

END

WGHT      0.0306      0.5799

REM Highest difference peak  0.621,  deepest hole -0.530,  1-sigma level  0.142
Q1    1   0.2411  0.1440  0.0921  11.00000  0.05    0.62
Q2    1   0.3417  0.0000  0.0000  10.25000  0.05    0.53
Q3    1   0.4291  0.1004  0.0000  10.50000  0.05    0.52
Q4    1   0.3150  0.0000  0.0000  10.25000  0.05    0.43
Q5    1   0.2405  0.2642  0.0000  10.50000  0.05    0.43
Q6    1   0.0946  0.0000  0.0707  10.50000  0.05    0.42
Q7    1   0.1528  0.5000  0.0000  10.25000  0.05    0.41
Q8    1   0.2341  0.4590  0.1791  11.00000  0.05    0.39
Q9    1   0.2570  0.0000 -0.0849  10.50000  0.05    0.39
Q10   1   0.3965  0.1916  0.0000  10.50000  0.05    0.37
Q11   1   0.0641  0.4397  0.0000  10.50000  0.05    0.36
Q12   1   0.2342  0.0529  0.0000  10.50000  0.05    0.36
Q13   1   0.2421  0.5000  0.1793  10.50000  0.05    0.36
Q14   1   0.2288  0.6563 -0.0434  11.00000  0.05    0.35
Q15   1   0.1879  0.0000  0.0000  10.25000  0.05    0.35
Q16   1  -0.1366  0.0000 -0.0523  10.50000  0.05    0.35
Q17   1   0.4365  0.0000  0.0000  10.25000  0.05    0.33
Q18   1   0.3154  0.5000 -0.1337  10.50000  0.05    0.33
Q19   1   0.3013  0.0000 -0.1028  10.50000  0.05    0.31
Q20   1   0.3621  0.2457  0.0504  11.00000  0.05    0.30
;
_shelx_res_checksum              42201
_shelx_hkl_file
;
   1   1   0 62.8727 3.75802   1
   0   1   1 63.1861 4.36967   1
   0  -1  -1 63.3141 4.85285   1
   1   0  -1 62.8701 5.77843   1
   0  -2   0 1046.97  47.493   1
   0   0   2 930.041 32.0423   1
   0   2   0 988.024  47.568   1
   0   0  -2 928.742  32.186   1
  -1   0   2 1208.38 41.4303   1
   0  -2  -1 1158.74 51.2032   1
  -1   0  -2 1074.79 33.1785   1
   1   0  -2 1198.06 41.4569   1
   2   0   1 1103.13 51.0798   1
  -2   0  -1 1084.55 51.0482   1
   0  -1   2 1115.92 40.9932   1
   0   2   1 1091.07 51.1771   1
   0  -2   1 1215.58 40.7843   1
   1   2   0 1073.79 32.9445   1
   0  -1  -2 1215.50 40.9426   1
  -1  -2   0 1010.07 33.2133   1
   1   0   2 1056.83 51.2849   1
   1   1   2 1374.86 43.4566   1
  -1  -2  -1 1350.42 61.3714   1
   1   2  -1 1484.57 43.4252   1
   1   2   1 1345.82  43.534   1
   1   1   2 1271.98 61.3863   1
  -1  -1  -2 1351.26 61.4567   1
  -1  -2  -1 1508.25 44.0171   1
  -1   1   2 1467.84 52.1098   1
  -1  -1   2 1489.20 52.2727   1
  -2  -1  -1 1285.88 61.3461   1
   1  -1  -2 1550.86 52.0703   1
  -1  -2   1 1553.75 52.3156   1
  -1   2   1 1328.40 61.2256   1
  -2  -1  -1 1424.93 44.2706   1
  -1  -1  -2 1380.95 43.4504   1
   1   2   1 1327.80 61.3532   1
   2   1   1 1547.16 44.4092   1
   0   2   2 2.01945 6.69833   1
   0  -2   2 -1.3862   5.978   1
   2   0  -2 7.78295 11.5373   1
   2   2   0  1.5045 7.55296   1
  -2   0   2 7.01765 12.8513   1
  -2   0  -2-2.16167   6.613   1
  -2  -2   0 3.19673 5.10854   1
   0  -2  -2 4.43711 8.16315   1
  -1  -2   2-2.87348 9.35688   1
   1   2  -2 0.12996 10.9308   1
   1   2  -2 0.08855 3.37047   1
  -1  -2  -2-2.46032 8.58979   1
  -1   2   2-1.25625 7.08985   1
   1   2   2-3.66915 8.51868   1
  -1  -2  -2 0.18301 9.67515   1
  -1  -2   2-1.49449 4.62671   1
   2   2  -2 7041.99 213.136   1
   2   2   2 7090.62  213.01   1
  -2  -2  -2 6964.35 212.889   1
   2   2   2 6877.80 317.099   1
  -2  -2  -2 6847.72 317.122   1
  -2  -2   2 7006.63 212.905   1
   1  -3   0 85.7983 6.70274   1
  -1   0   3 74.6239 10.8172   1
   0   1  -3 86.6955 9.54755   1
   1   0  -3 102.146 11.6273   1
  -1   3   0 93.9899 7.22943   1
   0  -1  -3 90.2765 9.02816   1
   0  -1   3 78.8836 9.04179   1
   0   1   3 63.8628  12.464   1
   1   0   3 59.8049 8.07704   1
  -1   0  -3 68.7567 5.10752   1
   1   3   0 95.5138 10.0313   1
  -1  -3   0 66.0459  16.479   1
  -3   1  -1-3.54115  6.0157   1
   3   1   1 -0.7964 12.6145   1
  -3  -1  -1-0.44087 10.2679   1
   0   2   3 5049.73 232.635   1
  -2   0   3 5213.65 177.435   1
   0  -3   2 5296.61 176.446   1
   0   2  -3 5173.19 176.663   1
  -3  -2   0 4873.78 147.939   1
   0  -2   3 5229.34 176.647   1
   3   2   0 4924.50 147.886   1
  -2  -3   0 4838.51 147.137   1
   2   0  -3 4776.73 177.472   1
   2   3   0 4810.90 147.174   1
   3   0   2 5067.22 232.453   1
   0   3   2 4954.53  232.59   1
   0   3  -2 5177.21 176.563   1
   1   2  -3 5624.20 191.803   1
   1  -3  -2 5811.82 191.284   1
  -1   3   2 5525.64 191.134   1
  -2  -3  -1 5452.26 171.065   1
  -3  -2  -1 5594.61 261.488   1
  -1  -3   2 6007.21 174.946   1
   1  -3  -2 5662.09 261.301   1
  -3  -1  -2 5934.69 261.378   1
  -1  -2  -3 5337.38 171.894   1
   2   3   1 5483.39 170.997   1
  -1  -2  -3 5553.15 261.552   1
  -2  -3  -1 5696.80 261.463   1
  -3  -2  -1 5531.51 171.506   1
  -2  -1   3 5229.25 192.324   1
   2   1  -3 5520.14 192.701   1
  -1   2   3 5796.90 191.424   1
   3   2   1 5479.45 171.708   1
  -1  -3  -2 5839.06  173.48   1
  -1  -2   3 5687.14 191.616   1
   1   3   2 5568.36 261.398   1
   2   3   1 5612.66 261.704   1
   2  -1  -3 5822.56 192.279   1
   3  -1   2 5615.77 261.108   1
  -2  -1  -3 5628.48 261.395   1
  -1  -3  -2 5506.34 261.416   1
  -1  -3   2 5596.62 191.595   1
   1   2   3 5691.56 261.363   1
  -2   3   1 5637.57 261.126   1
  -3   1  -2 5693.49 261.122   1
  -2  -3   1 5470.25 170.828   1
  -2   1   3 5529.46 191.725   1
   1   3  -2 5466.10 191.855   1
  -3  -2  -2 0.53395 10.1248   1
  -3  -2  -2-4.74998 11.9318   1
   3  -2   2 1.47904 6.04414   1
   3   2   2 0.36629 14.6793   1
  -3   0  -3 407.247 22.5848   1
   0   3  -3 448.032 20.0078   1
   3   0   3  422.62 23.0699   1
  -3  -3   0 443.627 15.9115   1
   0   3   3 450.409 23.1167   1
  -3   0   3 414.056 25.6699   1
   0  -3  -3 456.595 24.4952   1
   0  -3   3 468.912 18.9597   1
   3   3   0 426.066 18.5241   1
  -1   3   3-14.9883 9.42916   1
   1   3   3 0.09955 14.6481   1
   1   3  -3  0.1238 4.61754   1
  -1  -3  -3-9.57107 13.7664   1
   1  -3  -3-8.59157 11.6672   1
   1   3  -3-23.3055 17.5876   1
  -1  -3  -3 6.45246 29.8032   1
  -3   2   3 618.146 28.7849   1
  -2  -3  -3 582.068 21.4109   1
  -3  -3  -2 597.303 30.7366   1
  -2  -3   3  569.52 17.7232   1
  -2  -3  -3 582.726  31.203   1
  -3  -2  -3 571.796 19.7725   1
   3   3   2 506.918 21.0039   1
   3   3   2 587.831 31.6156   1
   3  -2   3 560.796 29.7086   1
  -3  -2  -3 537.587 31.2107   1
   2  -3  -3 526.772 26.3487   1
  -3  -2   3 564.488 29.8004   1
  -3  -3  -2 610.314 19.7695   1
   2   3  -3 493.633 27.9158   1
   3  -2  -3 610.189 27.2269   1
   2   3  -3 569.741 19.5639   1
  -3  -3   2 497.968 18.8188   1
  -2   3   3 562.755 23.8322   1
   3   3  -2 477.271 21.8883   1
   0   0   414438.20 483.175   1
   0   0  -414006.70 483.152   1
   0  -4   014220.10 656.593   1
   1  -4   0 573.084 25.0115   1
  -1   4   0 575.501 26.3319   1
  -1   0  -4 532.003  16.735   1
   1   0   4 518.641 18.2397   1
  -1   0   4 512.578 23.2183   1
   1   0  -4 593.858  24.515   1
   0  -1   4 451.007 21.7236   1
   0  -1  -4 544.374 22.0999   1
   0  -4   1 553.528 19.7398   1
   0   1  -4 519.855 22.7727   1
   0  -4  -1 497.539 25.8931   1
   0   4  -1  618.55 21.0926   1
   1   1   4 -2.2247 6.79474   1
  -1  -4   1 0.79783 53.1565   1
  -1   4   1  -2.247 8.95955   1
  -1   4  -1-1.84827  6.0502   1
  -1  -4   1-0.88082 12.6924   1
   1   4   1-0.91829 20.7299   1
   1  -4  -1-6.39967 9.34354   1
   1   4   1-16.5538 12.5577   1
  -1  -1  -4 3.25864 8.72788   1
  -1   1   4 1.50172 11.8838   1
   1   1  -4 25.0527 16.0281   1
   1   4  -1 2.30824 19.3019   1
  -4   1  -1 -1.9199 10.5808   1
  -1   1  -4 3.81348 9.03107   1
   1  -1  -4-20.3165 13.8621   1
  -1  -1   4 14.4396 12.7647   1
  -2   0   4 1807.59 68.7099   1
   0   4  -2 1939.17 67.3261   1
   0  -2   4 1846.03  67.652   1
   2   0  -4 1954.55 69.6903   1
   2  -4   0 1898.84 86.3075   1
   0  -4   2 2049.70 66.9192   1
   4   0   2 1730.83 87.1594   1
  -2   4   0 1933.21 86.2852   1
   0  -4  -2 1758.93 87.1639   1
   0   2   4 1890.44  59.589   1
  -2   0  -4 1858.13 55.4899   1
   2   4   0 1700.22 54.7628   1
  -4   0  -2 1768.71 86.7964   1
   2  -4  -1 600.147 31.0921   1
   1   2   4 615.805 32.1737   1
   1   4   2 595.198  31.986   1
  -2   4   1 632.914 30.6004   1
  -4   1  -2 709.724 30.6139   1
   4  -1   2 715.768  31.282   1
  -2  -1  -4 673.696 20.4035   1
  -1   4   2 564.096 31.2287   1
   1   4  -2 595.591  27.729   1
  -1   4  -2 652.454 23.5614   1
  -2  -4  -1 642.541 32.4619   1
  -2  -1   4 592.559 28.2042   1
   1   2   4 663.109 20.5812   1
  -1   2   4 580.949 24.8873   1
   4   1   2 692.075 33.1657   1
  -1  -2  -4 715.974 28.7904   1
   2   4   1 546.316 20.6474   1
   2   4   1 578.047 34.7391   1
   2   4  -1 598.983 20.0252   1
   1   4  -2 625.196 24.9676   1
   1  -2  -4 616.514 25.9311   1
  -1  -4   2  625.64  24.737   1
  -1  -2   4 595.764 26.1004   1
   2  -4   1  601.64 30.0131   1
   1  -4  -2 665.305 24.0249   1
   2   1   4  521.92 23.0995   1
  -1   4   2 657.494 22.7563   1
   1  -4  -2 639.157 32.2768   1
  -1  -2  -4 643.253  32.888   1
   2   1  -4 683.081 29.6029   1
   2  -1  -4 696.899 29.4324   1
  -4   2  -1 628.789 30.3157   1
  -2  -4  -1 578.156 25.1567   1
  -2  -1  -4 615.179 32.9405   1
  -2  -4   1  564.35  23.789   1
  -4  -2  -2  93.037 16.0725   1
   2   4   2 78.0663 9.07106   1
  -2   2   4 68.8481 15.0761   1
   2  -2  -4 73.9308  17.502   1
  -2  -2   4 76.9459 8.79134   1
   2   4   2 66.3859 14.1374   1
  -2  -4   2 67.4966 14.6229   1
  -2   4   2 89.3524 10.5582   1
  -2  -2  -4 86.6229 9.22556   1
  -2  -2   4 86.6233 18.4698   1
   2   2   4 84.7323  10.082   1
   4  -2   2 84.1202 9.21861   1
  -4  -2  -2 67.3623 18.4433   1
  -2   4   2 68.1067 11.2793   1
  -4   2  -2 72.5723  8.2226   1
   4   2   2 91.9535 21.2618   1
   2   4  -2 65.9987 8.00467   1
  -2  -4   2 55.9535 20.0572   1
   0   3  -4 61.9315 14.9748   1
   3   0  -4 63.8375  23.956   1
   0  -4   3 55.1882 11.5094   1
   0  -3   4  56.069 13.0688   1
   3   4   0 49.1407 10.3172   1
  -4   0  -3  57.526  11.549   1
   4   0   3 54.0275 11.8759   1
   3   0   4 52.0365  14.336   1
  -3   0  -4 69.6569 14.9054   1
   0   4  -3  52.849  14.527   1
   0  -4  -3 51.3396 16.6113   1
  -4  -3   1-5.14611 14.9058   1
  -1   4   3-1.87715 9.32799   1
   1   3   4 3.99624 13.5815   1
   3  -1   4-2.41765   13.61   1
  -3   4   1-1.63547 9.95505   1
  -1   4   3 6.35701 12.5718   1
  -3  -4   1 5.36649 8.78765   1
   4  -1   3 -3.0434 10.1257   1
   4   3  -1-15.3697 19.3444   1
   1   3   4 1.66579  11.457   1
   4   3   1-2.19095 18.9657   1
  -1  -3  -4-4.30911   17.08   1
  -1  -4   3 -6.7433 13.2267   1
   3   1   4 -10.851 15.7006   1
   1   4  -3-8.16481 11.5952   1
   3   4  -1 2.34411 11.9992   1
   3   1   4 -2.7038 17.3787   1
   3   1  -4-18.0062 23.7677   1
   1  -4  -3 5.24773 14.8188   1
  -4  -1  -3-1.09506 14.3353   1
   1  -4  -3 3.11896 11.2773   1
   1   4  -3 -3.8987 16.3168   1
   1   3  -4 0.99633 17.9196   1
   3   4   1 0.97768 10.6338   1
  -1   4  -3 9.40019 11.2052   1
   4   1   3 3.21406 14.0793   1
   1   4   3-4.73576 14.5913   1
  -3  -1  -4-0.30966 13.5802   1
  -1   3   4 1.97823 12.7791   1
  -3  -1   4 7.10429 21.4284   1
  -4   1  -3-1.29416 10.6092   1
   1   4   3 13.8749 18.6435   1
  -4  -3  -1-0.91329 12.7421   1
   4   3   2 615.037 34.9999   1
  -4  -3  -2 583.935 32.9217   1
  -3  -4  -2 589.396 31.4028   1
   3  -2  -4 587.967 30.9285   1
  -3  -4   2 670.328  20.033   1
   4  -2   3 504.892 28.8198   1
   2  -3  -4 655.674  28.575   1
   2   4  -3 531.865 19.2437   1
  -3   2   4 557.672 28.6314   1
  -4  -3   2 565.076 24.2348   1
  -3   4   2 625.149 27.2439   1
  -4   2  -3 577.876 29.0722   1
  -2  -4  -3 506.387 31.3596   1
   2  -4  -3 641.985 26.7137   1
  -3  -4  -2 687.583 22.5854   1
  -3  -2  -4 609.249 30.9799   1
   2   3   4 529.253 32.0903   1
  -4  -2  -3 593.093 32.1135   1
  -2  -4  -3 685.633 32.7955   1
  -2  -3  -4 695.431 32.2009   1
   3   2   4 568.786  25.179   1
   3   4   2 614.155 32.2587   1
   2   3   4 583.871 20.7322   1
  -2   3   4 618.174 26.0178   1
   2   4  -3 624.745 29.7518   1
  -4  -2  -3 550.687  25.484   1
  -2  -4   3  566.38 28.1569   1
   3   4   2 582.771 21.7023   1
   2   3  -4  559.55 31.9197   1
   2   4   3 643.779 31.6386   1
  -2  -3   4 572.207 18.5941   1
  -2   4   3 645.797 24.8561   1
  -4  -3  -2 592.284 22.4234   1
  -2  -4   3 707.006 23.6094   1
   3   4  -2  619.94 22.5775   1
   2   4   3 527.182 20.4933   1
   3   3   4  634.08 34.9884   1
   3   4   3 574.393 23.0882   1
   3   4  -3 627.387 35.5199   1
  -4  -3   3 591.487 24.2733   1
  -4  -3  -3 542.598 22.3868   1
  -4  -3  -3 567.935 34.4394   1
  -4   3   3 663.746 32.2807   1
   4   3   3 563.669 34.8224   1
   4   3   3 638.442 27.3884   1
  -3  -4  -3 498.275 23.8836   1
   3  -3  -4 699.166 31.1045   1
  -3   3   4 626.564 30.2278   1
  -3  -3  -4 506.683 33.9629   1
  -3  -4  -3 637.777 35.2162   1
  -3  -4   3 696.291 20.6042   1
  -3  -3   4 639.031 20.8562   1
   4  -3   3  727.70  30.674   1
   3  -4  -3 617.452 29.8227   1
  -3   4   3 657.147 28.8635   1
   3   4   3 526.579 34.6899   1
   3   4  -3 597.885 24.4801   1
   0   4  -4 4529.45 156.616   1
   4   0   4 4475.01 210.562   1
   4   0  -4 4823.47  158.38   1
   0  -4   4 4488.14 156.276   1
  -4   0  -4 4565.41 210.606   1
   0   4   4 4591.42 210.624   1
  -4   0   4 4745.16 159.312   1
   1  -4  -4  27.031 13.5879   1
   1   4  -4 12.7195  7.5713   1
  -1  -4   4  4.3752  15.436   1
   1   4  -4-19.9844 19.3492   1
  -1  -4  -4 0.04266 20.6638   1
   1   4   4-9.51418 15.7006   1
  -1   4   4 22.6846 13.3135   1
  -1  -4  -4 5.08331 78.7067   1
  -2  -4   4 1851.93 62.2229   1
   4   2  -4 2023.78 76.6882   1
  -2  -4  -4 2099.48 100.367   1
   4  -2  -4 2215.47 75.4759   1
   4   2   4 1856.82 63.5038   1
   2   4  -4 1868.52 59.8689   1
   2  -4  -4 2110.54 72.3007   1
   4   4   2 1903.61  62.913   1
  -4  -4   2 1975.63 60.0218   1
   2   4  -4 1931.65 75.6619   1
  -4  -4  -2 2290.30 100.613   1
  -4   2   4 2053.34 75.9309   1
   2   4   4 2024.10 100.156   1
  -4  -4  -2 2071.92 60.5891   1
   4   4   2 2188.29 102.213   1
   4   4  -2 1912.74 62.6675   1
  -2  -4   4 2088.37 73.3754   1
   4  -2   4 2109.50 99.3323   1
  -2  -4  -4 2126.20 65.8601   1
  -2   4   4 2043.08 71.6239   1
  -4  -2   4 1854.00  76.944   1
   3   4  -4-1.50817  17.579   1
  -3   4   4  16.259 19.9267   1
  -3  -4  -4-12.1208 16.0787   1
  -3  -4   4-0.96815 6.57053   1
  -3  -4  -4-19.2701 18.4596   1
   3  -4  -4 9.58791 21.5584   1
   3   4   4-28.1159 19.4267   1
   4   4  -4 4295.11 146.532   1
  -4  -4   4 4386.42 146.308   1
  -4  -4  -4 4296.64 131.236   1
   4   4   4 4304.57 132.503   1
   0  -5  -1 21.7447 12.8137   1
   0   1  -5 37.2975 14.8876   1
   0   1   5 22.6795 10.4224   1
  -1   5   0 30.1069 15.2172   1
   1  -5   0 24.8592 10.1971   1
   0   5  -1 33.4277 11.0467   1
  -1   0  -5 34.0848 6.87076   1
   0  -5   1 29.9766 6.64273   1
   0  -1  -5 19.7678 14.3675   1
   0   5   1 26.8502 13.1409   1
  -1   0   5 11.4362 15.0317   1
   1   0   5 27.3727 11.3635   1
   1   0  -5 25.0816 18.6706   1
   2  -5   0 1525.17 67.4205   1
   0   5  -2 1552.75 48.7328   1
  -2   0  -5 1317.65 40.4319   1
   2   0  -5 1535.91 51.1747   1
   0   5   2 1370.48 67.9476   1
   2   0   5 1291.51 42.9998   1
  -2   5   0 1392.51 67.6672   1
   5   0   2 1484.91 69.3154   1
  -2  -5   0 1153.66   50.66   1
   0  -2   5 1450.13 48.8097   1
  -5   0  -2 1460.52 68.2749   1
   0  -5  -2 1388.03 68.2202   1
   0   2   5 1228.92 44.9239   1
  -1  -2   5 1100.76 38.1394   1
   1  -5  -2 892.599 35.1881   1
   2   5   1 826.895 47.8843   1
  -1  -2  -5 1053.77  42.679   1
  -2   5   1 881.491 43.0357   1
  -2  -5  -1 894.107 45.2945   1
   5   1   2 853.958 46.9933   1
   1  -5  -2 912.323 44.0914   1
  -1   2   5 961.462 37.7365   1
  -1   5  -2 1033.86 35.6347   1
   2   5  -1 1002.95 31.8428   1
   1   2   5 912.304 31.1948   1
   1  -2  -5 880.398 38.4133   1
   2   5   1 934.482 32.6756   1
   1   5  -2 1129.21 37.8173   1
   2   1   5  975.74 33.6254   1
   2  -1  -5 999.265 39.5155   1
   1   5  -2 991.063 38.3472   1
  -2   1  -5 966.136 33.3753   1
  -5  -1  -2 899.609 44.8844   1
  -5   1  -2 1041.34 43.1353   1
   2  -5   1 833.664 42.6304   1
   2  -5  -1 936.713 43.4851   1
  -2  -1  -5 997.309 30.9394   1
  -2  -5   1 930.317 41.2579   1
  -1  -5   2 901.552 36.7889   1
  -1   5   2 1033.65 43.7297   1
  -5   2  -2 0.93862 8.70356   1
   5   2   2-6.65566 23.9917   1
   5   0   3 1376.91 65.4783   1
  -3  -5   0 1376.95 38.5999   1
   0   3  -5 1440.84 52.5361   1
   3   0  -5 1478.65  57.512   1
  -3   0   5 1453.97 54.8283   1
   0   5  -3 1311.38 51.5454   1
  -3   0  -5 1306.52  38.627   1
   3   0   5 1375.67 66.3725   1
   0  -5  -3 1421.71 65.9545   1
   0   5   3 1483.25  66.235   1
  -5   0  -3 1338.04 65.4435   1
  -3   5   0 1364.67 64.0993   1
   3  -5   0 1358.52 64.4389   1
   0  -5   3 1505.23 50.6354   1
   1   5   3 222.438 27.8828   1
  -3   5   1  289.82 16.9435   1
   3   1  -5 284.778 33.7544   1
   5  -1   3 246.288 18.0748   1
   1   3   5 217.831 20.5878   1
  -1  -5  -3 277.959 21.9863   1
   1  -5  -3 307.739 21.8474   1
  -3  -1   5 271.263 23.4185   1
   3   5  -1 234.771 13.1382   1
   1   3   5 279.305 14.8011   1
   1  -5  -3  259.09 15.1494   1
   1   3  -5 295.074 24.2432   1
  -1  -5   3 293.918 18.4859   1
  -1   5  -3 298.539 15.3279   1
   3  -1  -5 260.144 29.5521   1
   3   1   5 243.463 21.0629   1
  -3  -5   1 273.356 17.7294   1
   5   3   1 287.691 27.0808   1
   1   5  -3 283.185 23.5592   1
  -5   3  -1 314.494 15.4134   1
   5   1   3 274.446 22.2418   1
  -3  -1  -5  337.49 14.3944   1
   3   1   5 296.419 22.0309   1
  -5   1  -3 236.219 17.7042   1
  -3  -5  -1 270.408  19.917   1
   1   5  -3 252.881 22.0169   1
  -1   3   5 245.546 17.9322   1
   3   5   1 275.146 14.6918   1
  -5  -3  -1 259.971 21.5561   1
  -3  -5   2 3611.96 113.545   1
   2   5   3 3618.96 169.177   1
  -5  -2  -3 3454.12 169.178   1
  -5   3  -2 3630.73 167.916   1
   3   2   5 3684.06 114.242   1
   3   5   2 3940.71 113.481   1
   2   5  -3 3724.09 112.578   1
  -3  -5  -2 3631.42  169.25   1
   5  -2   3 3538.69  168.17   1
  -2  -5  -3 3770.97 119.992   1
  -3   5   2 3464.87  124.89   1
   2   5  -3 3759.86 125.947   1
  -2  -5   3 3672.88 125.208   1
   2  -3  -5 3763.30 125.387   1
  -2  -3  -5 3757.83 169.627   1
  -2   5   3 3721.26 124.125   1
  -3  -2   5 3816.61 126.392   1
   3   2  -5 3845.44 127.953   1
  -3  -2  -5 3648.03 169.438   1
   3  -2  -5 3955.21 127.661   1
  -5  -3  -2 3739.89 114.691   1
  -3  -2  -5 3657.46  112.92   1
  -2  -3  -5 3788.72 114.988   1
   2   3   5 3592.69 112.999   1
  -3  -5  -2 3480.15 114.278   1
   2   5   3 4001.21 113.845   1
  -2   5   3 3624.28 168.695   1
   3   5   2 3652.58 169.708   1
  -5   2  -3 3549.29 168.157   1
   2   3   5 3680.44 168.961   1
  -3   5   2 3729.81 168.487   1
  -2  -5  -3 3642.48 169.238   1
   5   2   3 3751.69 169.456   1
   2  -5  -3 3685.08 124.592   1
  -5  -3  -2 3856.04 169.162   1
   3   5  -2 3666.29 113.052   1
   5   3   3 6.20179 24.1495   1
  -5  -3  -3 -4.8946 16.1483   1
  -5  -3  -3 1.82035 21.7731   1
   5  -3   3 -16.824 9.20143   1
   4   5   0 270.413 20.0278   1
   0  -4   5 274.786 19.4215   1
   0   5   4 268.772 22.8951   1
   5   0   4 258.348 18.3888   1
  -5  -4   0 286.207 17.8807   1
   4   0  -5 209.389 31.0794   1
   0   5  -4 274.165 21.5138   1
   0   4  -5 216.291 23.3853   1
   0  -5   4 283.017 17.4027   1
   0   4   5 202.599 20.5154   1
  -4   0  -5 228.867 22.3372   1
  -5   0  -4 235.792  20.234   1
   4   0   5  220.22 20.7017   1
  -4  -5   0 253.708 13.6819   1
  -1  -5   4-2.42586 16.8944   1
  -4  -5   1-7.64518  11.804   1
  -1   4   5 -13.992   16.62   1
   1  -4  -5 16.0713 17.9052   1
  -4  -1  -5-29.3247  20.536   1
  -4  -5  -1-2.31967 12.0748   1
   1  -5  -4-15.0605 14.5696   1
   1   5   4-3.85167 25.0831   1
   4   5   1 1.28197 14.5683   1
   1  -5  -4-7.77916 18.9004   1
  -1  -4   5 -12.909 17.7174   1
  -1   5   4-26.5515  17.777   1
   5  -1   4-5.00597 13.6811   1
   4   5  -1 1.35561 19.3067   1
  -4   5   1-11.4483 10.4386   1
   1   5  -4-0.46068 14.9826   1
   5   4  -1 2.85148  27.626   1
  -5   1  -4-14.2357 14.9895   1
  -5  -4   1 8.75645 14.5247   1
  -5  -4  -1   2.722 15.8757   1
  -4  -1  -5-4.72532 18.0523   1
  -4   1   5-40.4887 30.6988   1
   5   4   1 2.70173  24.993   1
   1   5  -4-14.1508 22.7136   1
  -4  -1   5-25.1971 28.8649   1
   1   4  -5-3.99977 21.9771   1
   1   4   5-2.41765 18.5733   1
  -1  -4  -5 8.44757 23.5224   1
  -5  -1  -4-4.38022 16.6534   1
   4   1   5-12.2874 19.0142   1
   5   1   4-2.10478 17.3787   1
  -1   5  -4 7.16205 14.7862   1
   4   1  -5 12.2592 30.6264   1
  -5  -4   2 1018.47 33.2631   1
  -2  -5   4 935.774 37.2995   1
  -4  -2  -5 1031.51 32.1656   1
  -4  -5  -2 990.315 32.7096   1
   4   5   2 890.441 33.5217   1
   2   4   5 945.772 48.4131   1
   4   5  -2 841.574 35.8643   1
   4  -2   5 953.992 47.7612   1
   5   2   4 970.134 48.8571   1
   2   5   4 989.162 49.3855   1
   2   4   5 886.861 31.8374   1
   4   2   5 928.237 48.2116   1
  -5   2  -4 988.622 46.6738   1
   4   5   2 898.471  53.434   1
  -4  -5  -2 865.563 49.4805   1
  -5  -4  -2 840.476 48.1986   1
   4   2   5 980.138 39.2568   1
   2  -5  -4 926.576 35.3532   1
  -2   4   5 1016.36 35.0695   1
  -4  -2   5 1026.47 42.8917   1
  -2  -4   5 969.736 36.6147   1
   4  -2  -5 914.389 42.4834   1
   2   5  -4 1099.63 41.2491   1
  -2   5   4 1017.16 33.1125   1
   4   2  -5 1054.18 44.3231   1
  -4   2   5 895.473 40.7362   1
   2   4  -5 911.992 41.4308   1
  -5  -2  -4 951.802  49.337   1
  -2  -5  -4 1014.13 49.8297   1
  -4  -5   2 1050.80 31.4062   1
   2   5  -4 956.713 30.2902   1
   2   5   4 1052.14 32.7582   1
  -5  -4  -2 914.976 32.9373   1
  -5  -4   3-18.9227 16.4971   1
  -5  -4  -3 6.89743 20.6212   1
  -4  -5  -3 0.05689 22.6406   1
  -4  -5  -3 22.5476 16.0956   1
   4   3   5 6.73021 22.8151   1
  -4  -3  -5 1.95659 12.7839   1
   3   5   4  10.723 21.7731   1
   4   5   3 2.26005 15.7256   1
  -3  -5  -4 2.38797 25.2378   1
   4   5   3 6.44234 24.2477   1
   5  -4   3 9.62795 7.56589   1
   5   4   3 -1.5621 26.4076   1
   3   5   4-5.01759 14.3676   1
  -5  -3  -4 12.9214 17.5057   1
  -5  -4  -3-0.97299 16.2685   1
  -4  -5   3-4.93928 10.3401   1
  -3  -4  -5 15.0957 20.5328   1
   3   5  -4  -6.577  15.358   1
   3  -4  -5-8.75041 25.4571   1
   3   5  -4-13.3422 26.5112   1
  -4  -3   5-23.1178  31.334   1
   3  -5  -4-4.53404  21.053   1
   3   4  -5 13.4866 29.3124   1
  -5   3   4 10.5698 31.2185   1
  -3   4   5 1.76163  22.006   1
  -3  -5   4 2.81573 29.5001   1
   4  -3  -5 0.44763 28.8648   1
  -4   3   5 23.7965  25.847   1
  -3  -4   5 5.86248 26.0491   1
   3   4   5   19.13 13.6289   1
   5  -3   4 11.1923 11.1639   1
   5   4   3 25.1009 26.4947   1
  -4  -3  -5-4.22378 18.8862   1
  -3  -4  -5  6.2859 19.8674   1
  -3  -5  -4 -7.0112 20.7918   1
   3   4   5 11.2492 20.8487   1
  -3  -4   5 10.4081 7.54494   1
  -5  -4  -4 5.23707 14.9718   1
   5   4   4 -31.913 22.3422   1
   5   4   4 -29.424  25.174   1
  -5  -4  -4-31.6997  21.816   1
  -5   4   4 9.84782  33.832   1
   5  -4   4 2.71631 10.9648   1
  -5  -5   0 37.2483 13.9042   1
   5   0   5 19.6541 16.4259   1
   5   5   0  50.582 23.6144   1
   0   5  -5 47.8096 21.5876   1
  -5   0   5 36.0268 32.1716   1
   5   0  -5 75.8658 34.9589   1
   0  -5   5 44.1275 16.6926   1
   0  -5  -5 51.1832 22.2287   1
  -5   0  -5 50.4152 20.9203   1
   1   5   5-23.5159 22.1436   1
  -1  -5  -5 10.5013 118.654   1
  -1   5  -5-7.55192 19.0459   1
   1   5  -5-11.3929 22.0638   1
   1  -5  -5 18.4394  16.389   1
  -1  -5   5 35.2327 19.1472   1
   1   5   5 14.2499 21.1616   1
   2   5  -5 1060.18 35.5235   1
  -5  -5  -2 1149.06 36.9453   1
   5   2  -5 1070.13  53.464   1
   2  -5  -5 1119.17 45.0266   1
   5   5   2 1164.11 42.8621   1
  -5  -5   2 1165.70 37.2745   1
  -2  -5  -5 1010.02 54.2594   1
   2   5  -5 1190.82 47.3882   1
  -2  -5   5 1227.15 46.2718   1
  -5  -2  -5 995.519 52.7235   1
  -5   2   5 1019.52 51.7984   1
   5  -2  -5 970.342 50.3781   1
  -5  -2   5 1059.42 51.9198   1
   5   2   5 975.182 52.9335   1
  -3  -5   5-12.9897 19.9258   1
   3  -5  -5-39.4202 25.8183   1
   3   5  -5-5.75755 16.5904   1
  -3  -5   5 87.9517 27.1187   1
   3   5  -5 69.0214 29.0676   1
   3   5   5-37.2461 23.6079   1
  -3  -5  -5 4.99175 24.4752   1
  -5  -5  -4 234.143 26.5598   1
  -4   5   5 229.431 25.8113   1
  -4  -5  -5 179.006 24.2387   1
  -5   5   4 196.783 29.9093   1
  -5   4   5  214.14  32.711   1
   4   5   5 159.912 19.4084   1
  -4  -5   5 210.963 37.6197   1
   4   5  -5  175.47 32.0018   1
  -5  -4   5 153.219 35.6972   1
  -5  -4   5 177.013 16.9519   1
   5   5   4 183.238 26.9932   1
  -4  -5   5 212.469 11.3548   1
  -5  -5  -4 162.293 15.0633   1
   5  -4   5 250.369 18.7147   1
   5  -5   4 180.314  13.648   1
   4   5   5 179.902 27.5233   1
  -5  -4  -5 197.252 25.2778   1
   5   5   4 220.476 29.9996   1
   0   0  -6 6022.58  205.78   1
   0  -6   0 5918.70 273.865   1
   0  -1   6 392.339 25.6962   1
   0   1   6 423.848 15.9849   1
   0  -6  -1 432.291 24.9177   1
   1   0   6 425.579 18.7204   1
   0  -6   1 491.799 18.4023   1
   1   0  -6 506.989 26.9514   1
  -1   0   6 463.223 25.9936   1
   0   6   1 440.909 26.5241   1
   1  -6   0 381.293 22.3681   1
  -1  -1  -6 1268.63 50.0054   1
   1  -6  -1 1840.46  79.967   1
   1  -1  -6 1662.14 66.7084   1
  -1  -1   6 1827.84 65.1717   1
  -1  -6   1 1808.85 63.6273   1
   1   1   6 1462.33 44.6072   1
  -1   6   1 1658.82 79.9351   1
  -1  -6  -1 1606.92   80.31   1
   1   6   1 1619.69 81.6751   1
   0   2  -6 387.025 23.9789   1
   2   6   0 458.957 22.1701   1
   0  -6  -2 430.044 26.1817   1
   0   6   2 392.513 24.7988   1
   0  -2   6 356.139 22.8355   1
   0   6  -2  365.25 20.5288   1
   2   0  -6 399.082 28.0631   1
  -2   0   6 424.222 24.0413   1
   0  -6   2 361.395  16.909   1
   2   0   6 461.651 24.4887   1
  -6   0  -2 409.152 24.5879   1
   2  -6   0 397.505 22.3277   1
   1   6  -2  34.514 29.8026   1
   1  -6  -2 8.90266 14.5344   1
   2  -1  -6 5.44374 22.5114   1
   1   6  -2 26.0635 17.6454   1
  -2   1  -6 24.8467 12.5573   1
   2   6  -1-14.6088 14.7085   1
  -1   2   6 13.9631 18.6271   1
  -1   6   2-14.4917 13.6243   1
   1   2  -6 -15.176  24.273   1
  -2  -6  -1-0.78218 18.9857   1
  -1  -2  -6 26.0232 41.3744   1
  -2   6   1 14.6624 12.3301   1
   1   6   2 9.78439 17.1369   1
   1  -2  -6 -17.212 23.2045   1
  -1  -2   6 9.77562  18.295   1
  -1  -6   2 23.2911 14.2376   1
   1   2   6 30.4464 9.27053   1
   2   6   1  22.431 16.3261   1
  -1  -6  -2 4.30911 17.2222   1
   2  -6  -1 30.3771 11.5624   1
  -6   1  -2 35.8808 14.6485   1
  -6  -1  -2 12.5291 17.5494   1
  -2  -1   6-9.16916 20.8508   1
   2   2  -6 1018.77 42.5877   1
   2   6   2 1055.58 36.1294   1
  -2   2   6 1066.42 40.2488   1
  -2   6   2 1030.99 49.7331   1
  -2  -6   2 1081.37 39.3014   1
   2  -6  -2 1044.75 50.0903   1
  -2   6   2 972.638 35.3049   1
   2  -2  -6 1108.69 40.9773   1
   2   2   6 1027.35 34.1538   1
   2   6  -2 1061.61 34.6525   1
  -2  -2   6 1062.28 40.7664   1
  -2  -2  -6 1006.78 36.5336   1
  -6   2  -2 971.684 48.8148   1
   0   3   6 899.004 38.9431   1
   3   6   0 899.316 31.5769   1
  -3   0  -6 927.698 32.1555   1
   0   6   3 999.387  48.365   1
   3  -6   0 935.945 46.0261   1
   0   6  -3 1087.46 39.0723   1
  -6   0  -3 879.216 47.7355   1
   6   0   3 1081.53 50.1676   1
   0  -6  -3 1042.99 48.6137   1
  -3   0   6 1024.19 43.7558   1
   1   6  -3 1178.81 46.8673   1
  -3  -1  -6 1074.58 36.7556   1
   1   6  -3 1365.11 44.5537   1
   3   1  -6 1113.41 51.9427   1
  -1   3   6 1199.09 45.1861   1
  -1   6   3 1238.81 58.4847   1
   1   6   3 1120.24 58.7069   1
   3   6  -1 1307.29 37.8475   1
   1  -3  -6 1166.06 46.5336   1
   1   3   6 1088.69 37.4713   1
   3  -6   1 1113.77 56.0505   1
  -3   6   1 1188.87 56.7301   1
   6   1   3 1210.05 60.7799   1
  -6   1  -3 1257.89 57.5511   1
  -3  -6   1 1228.30 44.4032   1
   3   6   1 1175.03 37.5948   1
  -3   1   6 1182.91 47.1706   1
  -1  -6   3 1267.42 43.8614   1
  -3  -1   6 1164.79 49.1843   1
   3   1   6 1048.25 41.5355   1
   1  -6  -3 1199.58 59.1312   1
  -1  -6  -3 1306.74 58.8514   1
   6  -1   3 1278.04  59.116   1
  -6  -1  -3 1208.40 58.9339   1
   3   1   6 1316.90 59.1229   1
  -2  -3  -6 18.1076 27.8746   1
  -2  -3  -6 13.8944 24.1908   1
   3   2   6 23.4212 20.1635   1
  -6  -2  -3 3.54115 22.0149   1
   2   6  -3 23.0095 10.8597   1
   2  -6  -3 15.8547  13.891   1
   2  -6  -3 16.5396 17.6347   1
  -3  -2   6 22.5836 26.8289   1
  -3   2   6 25.6159 24.3453   1
  -3  -6   2 3.51946 27.9098   1
   2   6   3  13.705 17.2914   1
   3   6   2 30.4705 12.7606   1
   3   2  -6  48.185 30.6267   1
  -2  -6   3 17.9918 19.1614   1
   3  -2  -6 24.5762 26.0492   1
  -3  -2  -6 28.2312 10.3399   1
  -2   6   3 11.8116  10.411   1
   3   6  -2 19.2399 11.5504   1
   2   3   6 15.7384 12.1117   1
   2   6  -3 59.9677 23.0029   1
   2  -3  -6 34.5684  21.212   1
  -3   6   2 34.0486 13.6891   1
  -3  -6  -2 29.2072 31.2228   1
  -2   3   6  20.923  19.999   1
  -6   3  -2 19.8248 10.0548   1
   6   2   3 28.6563 26.7792   1
   6  -2   3-4.03891 17.7627   1
   2   3   6 18.9288 19.5546   1
  -2  -6  -3 28.2012 21.4746   1
  -3   6   2 24.5605 14.3923   1
  -2   6   3 36.3501 16.9808   1
   3   6   2 16.5396 25.1152   1
  -3   3   6 1371.42 52.7957   1
   3   3   6 1342.86 41.2535   1
   3   6   3 1394.10  40.797   1
  -3  -3  -6 1467.42 41.6939   1
   3  -3  -6 1342.60 55.0518   1
  -3  -3   6 1179.92 55.1246   1
   3   6   3 1279.88 71.8391   1
   6  -3   3 1555.15 69.7961   1
  -3  -6   3 1262.57 53.9856   1
  -3   6   3 1465.92 49.3169   1
   3   6  -3 1223.62 39.6561   1
  -3  -3   6 1161.84 38.3341   1
   3   3   6 1632.57 71.9816   1
  -6  -3  -3 1396.25 71.7855   1
  -3  -6  -3 1408.77 71.5744   1
   6   3   3 1290.60 73.9285   1
  -3   6   3 1376.30 70.2062   1
  -4  -6   0 830.547  31.434   1
   0   4  -6 841.108  32.139   1
   0  -6   4 907.891 27.7208   1
  -4   0   6 842.061 35.4525   1
   0  -4   6 850.003 29.9234   1
   0  -6  -4 914.257 44.9577   1
  -6  -4   0 860.091 34.4761   1
   4   6   0 849.696 30.6186   1
  -4   6   0 814.622 38.9216   1
   4   0   6 875.575 43.9718   1
   1   4   6 949.296 33.3367   1
  -4   1   6 921.074 41.4611   1
   1   4   6 865.634 46.3559   1
  -1  -6  -4 976.803 47.6088   1
   1  -4  -6 897.148 35.9525   1
  -1  -4   6 934.012  34.505   1
  -6   1  -4 933.158 45.2448   1
  -4  -6   1 853.018 32.5223   1
  -4   6   1 958.515 43.4747   1
  -6   4  -1 872.887 42.5516   1
  -6  -4  -1 1057.07 35.4422   1
   1   6   4 951.759 47.7183   1
  -6  -1  -4 790.303 46.3451   1
   1  -6  -4 797.543 32.0298   1
   4   6   1 865.121 32.9527   1
   4   6  -1 941.424 33.3962   1
  -4  -1  -6 1010.26  32.823   1
   1  -6  -4 945.374 47.0073   1
  -4  -1  -6 817.622 48.0534   1
  -1  -4  -6 1019.67 49.7454   1
   6   1   4  870.54 46.4845   1
  -1   6   4 935.376 46.6366   1
   4   1   6 884.321 46.8842   1
   4  -1   6 923.331  46.947   1
   1   4  -6 936.221 38.0199   1
   1   6  -4 843.432 38.3206   1
   4   6   2 -20.923 14.9931   1
   4  -2  -6-45.3982 29.8036   1
  -2  -4   6-41.6583 22.0929   1
  -4   2   6-24.9372 27.5509   1
  -2   6   4-15.0028  12.577   1
   2  -6  -4-22.3381 19.1326   1
   2   4  -6-12.1004 28.5905   1
  -2   4   6-44.0553 20.8945   1
  -2  -6   4-12.4181 23.6954   1
   2  -4  -6-43.9686 22.6994   1
  -4  -2  -6 -50.657 25.3005   1
  -6  -2  -4-43.1196 22.4703   1
   2   4   6-36.8906 20.5077   1
  -4  -6  -2-8.78889  22.598   1
   6  -2   4-4.49399 14.2215   1
   2   4   6-25.5803 12.2308   1
   4   2   6-35.8447 25.7279   1
   4   6  -2-2.46871 19.6924   1
   2   6   4-43.6935 19.0676   1
  -4  -6   2-26.1501 16.7429   1
  -6  -4  -2-0.04095 19.4201   1
   6   4   2 -28.855  31.296   1
  -4  -2  -6 -10.785 13.0585   1
   2   6  -4-30.7997 26.3236   1
  -2  -4  -6-44.4506 39.6559   1
  -4  -6  -2-49.3977 23.2582   1
  -2   6   4-37.8718 20.2517   1
  -4   6   2-28.8554  15.331   1
   6   2   4-25.3569 23.5794   1
   4   2   6-31.9415 21.4604   1
   4   6   2-44.5417 31.1311   1
   3   6   4 293.574 27.8439   1
  -3  -6  -4 241.578 47.6666   1
  -6  -4  -3 367.429 22.6129   1
  -4  -3  -6 389.348 18.1047   1
  -3  -4  -6 375.807 26.2783   1
  -4  -6  -3 332.557 27.4398   1
   3   6  -4 370.708 31.9133   1
   4  -3  -6 311.795 33.1067   1
   3  -4  -6 272.403 32.3823   1
  -3  -6   4 352.471 26.4422   1
  -4   6   3 340.746 22.0403   1
  -4   3   6 348.601 31.0311   1
  -3  -4   6 310.524 29.9166   1
  -3   6   4  310.51 19.4256   1
  -3   4   6 262.945  26.954   1
   3  -6  -4 261.473 22.4362   1
  -4  -3   6 330.407 32.4441   1
  -3  -4   6 340.955 13.7141   1
  -4  -6  -3 236.077 28.2376   1
   4   6   3 304.397 31.4698   1
   4   6  -3 406.584 22.8119   1
  -6  -3  -4 310.884 24.0224   1
   4   3   6 432.608 27.6109   1
   4   6   3 320.398 19.3858   1
   3   6   4 314.571 18.0343   1
   3   4   6 414.631 19.6019   1
   6   4   3 271.425 32.1358   1
  -6   3  -4 289.422 22.1012   1
   6   3   4 411.044 29.9021   1
   6  -3   4 401.444 20.7235   1
  -6  -3  -4 352.124 29.0574   1
   3   4   6  355.04 28.0344   1
  -6  -4  -3 303.714 28.7403   1
  -3  -6  -4 309.915  29.082   1
  -3  -4  -6 392.456 32.0745   1
   4   4   6 455.553 27.6724   1
   4   6   4 406.298 21.7121   1
   4   6  -4 492.758 24.5753   1
  -4  -4  -6 521.755 22.6723   1
   4  -4  -6 448.769 34.8501   1
  -4  -4   6 482.081 33.1076   1
  -4  -6   4 509.848 36.4869   1
  -4   6   4 545.413 28.1394   1
  -4   4   6 532.649 34.0079   1
   6   4   4 522.612 36.7355   1
   6   4   4 401.314 35.6989   1
  -4  -6  -4 458.882 30.4669   1
  -4  -4   6 435.542 15.9585   1
  -6  -4  -4 559.038 22.6699   1
   6  -4   4 479.805 25.6916   1
  -4  -6  -4 495.605 35.9225   1
   4   4   6 481.142 32.9652   1
   4   6   4 485.181 35.3956   1
  -4  -4  -6 521.872 32.7713   1
  -4  -6   4 435.344 21.7755   1
   0   6   5 326.412 25.8712   1
   5   6   0 302.187 25.2267   1
  -5  -6   0 275.731 16.6486   1
  -5   0   6 282.656 36.0063   1
   0   6  -5 308.849 24.8939   1
   0   5  -6 247.914 24.8599   1
   5   0  -6 212.392 34.5734   1
   0  -6   5 273.689 20.4747   1
   0  -5   6 283.349 23.3041   1
  -6   0  -5 239.547 23.6601   1
   6   0   5  204.96 21.6245   1
  -6  -5   0 277.535 17.0684   1
   0  -6  -5 205.885 28.0935   1
  -5   0  -6 240.343 25.2523   1
  -5   6   0 288.895  14.671   1
   5   0   6 250.284 24.5992   1
   6   5  -1 1012.78 50.2001   1
   5   6  -1 1066.37 45.6086   1
  -5  -6  -1 1121.67 40.5919   1
  -5  -1   6 1263.90 54.6775   1
  -5   1   6 1327.82 55.9713   1
   1   5  -6 1195.04 47.6195   1
   1  -6  -5 1094.73 43.8119   1
   1   6  -5 1217.32 48.6321   1
   1  -5  -6 1147.08 45.8386   1
  -1   6  -5 1144.87 44.8154   1
  -1  -6   5 1290.18 45.1474   1
  -1  -5   6 1189.16 45.5586   1
   5   1  -6 1080.24 54.0279   1
  -6   1  -5 1288.38 62.0563   1
  -1   6   5 1093.78  61.515   1
  -6  -5   1 1220.87 41.5875   1
   6   5   1 1218.57 49.2163   1
   1   5   6 1316.80  44.931   1
   1   5  -6 1273.62 37.8715   1
   1   6  -5 1302.70 40.9704   1
  -5  -6   1 1146.66 39.5317   1
   6   1   5 1179.25 61.2295   1
  -6  -1  -5 1158.48 61.1837   1
   5  -1   6 1266.03 60.9878   1
  -5   6   1 1201.72 58.5494   1
  -1  -6  -5 1349.24 63.9121   1
   5   1   6 1309.40 61.7475   1
  -5  -1  -6 1135.60 62.9271   1
  -2  -5  -6 16.6249 30.0785   1
  -6   2  -5-24.2903 18.2605   1
  -5  -2  -6 10.9221 23.1526   1
   5  -2   6-1.43637 21.6878   1
   2   5   6 12.1053 13.3568   1
  -5  -2  -6 27.9725 16.9859   1
   2   6  -5 11.8278  9.5668   1
  -6  -5  -2 23.1516 18.1988   1
   5   6   2 26.6075 24.3933   1
   5   2  -6 16.2301  34.092   1
  -5  -2   6  41.485 36.1859   1
  -2   6   5 6.32455 15.5082   1
   2   6  -5-40.1566 30.0779   1
  -2  -5   6 20.4176 22.4104   1
   2   5  -6 44.9216 27.9265   1
   5  -2  -6 28.6915 32.7347   1
   2  -6  -5 4.25969 19.9844   1
  -5   2   6 22.6558 31.3196   1
   2  -5  -6-3.71098 21.5584   1
  -2  -6   5 22.6702 24.0998   1
  -5  -6  -2 31.0521 16.2078   1
  -6  -5   2 12.3465 16.3998   1
  -5  -6   2  13.672 11.9176   1
   5   6  -2-0.55748 23.5658   1
   6   5   2 38.0171 31.6067   1
   2   5  -6 10.7373 12.6142   1
   2   5   6 -9.1302 22.3989   1
   6   2   5 29.0545  22.399   1
   2   6   5 10.1826 24.9587   1
  -6  -2  -5 3.71181 21.7304   1
   5   2   6 5.98725 22.6406   1
   5  -3  -6  161.55 31.6692   1
  -3  -5  -6 192.132 26.2443   1
   3   5   6 190.824 25.8319   1
  -3  -5   6  144.10 28.3656   1
  -6  -5   3 180.907 16.6117   1
  -3  -6  -5 215.967  51.126   1
   5   3   6  162.36 30.6714   1
   3   5  -6  214.01 35.5552   1
   3   6  -5  174.07 32.7092   1
  -3  -6   5 175.514 28.6811   1
  -3  -5   6 223.699 27.8608   1
  -6  -5  -3 188.193 25.3768   1
  -3   5   6 162.662 21.6063   1
  -5  -3   6 196.538 36.8683   1
  -3   6   5 155.616 17.5493   1
  -5   3   6 194.429 31.6417   1
  -6  -3  -5 186.347 19.8907   1
   5   6  -3 168.013 25.7128   1
   3   5   6 207.262 17.1033   1
  -6  -5  -3 177.793 18.5999   1
  -3  -5  -6 153.413 38.2853   1
  -5  -3  -6 182.498  16.583   1
   6   5   3 221.813 34.0714   1
  -5  -6  -3 222.923 19.9562   1
   3   6  -5 205.511 17.3506   1
  -3  -6   5 142.262 46.4114   1
  -3  -6  -5 199.428 28.1074   1
   5  -3   6 153.919 21.7064   1
   6   5   3 146.638 38.2723   1
  -5  -3  -6 182.348 24.1821   1
   6  -3   5  167.43 16.1057   1
   3   6   5 170.246 26.9541   1
  -5  -6  -3 175.067 25.9021   1
   6   3   5 221.912  24.071   1
   5   6   3 138.958 33.6504   1
   5  -6   4 757.181 35.4197   1
  -5  -4  -6 748.371 28.2313   1
   5   6   4 699.653 32.7116   1
   4   6  -5 790.383  30.871   1
   4   5   6 807.387 31.0208   1
  -6  -5   4 731.325 26.6528   1
   6   5   4 691.625 38.7635   1
  -4  -5   6 676.446 24.1057   1
  -4  -6   5 620.982 28.8882   1
  -4  -6  -5 680.896 38.9703   1
  -4  -5  -6 546.504 42.3799   1
   6  -4   5 746.287 36.5678   1
   4  -6  -5 619.214 35.4035   1
  -6   4   5 675.023 42.1755   1
   4   5  -6 759.466 43.4555   1
  -5  -4   6 802.886 47.3555   1
  -4  -6   5 660.468 38.9858   1
  -5   4   6 698.719 37.4333   1
  -4  -5   6 835.289 38.4778   1
  -5   6   4  680.25 34.6189   1
  -4   6   5 680.972 32.4708   1
  -4   5   6 710.833 35.9643   1
   5  -4  -6 508.202 38.9831   1
   4   6  -5 688.192 44.1679   1
   5   4   6 712.705 36.3248   1
  -5  -4   6 575.752 27.1842   1
  -6  -5  -4 756.104 28.6499   1
  -5  -6  -4 616.753  29.402   1
   6   4   5 597.437 40.9596   1
   6   4   5 821.491 43.2392   1
   6  -5   4 757.906 35.2211   1
   4   6   5 697.138 44.2019   1
   4   5   6 521.374 42.0789   1
  -6  -5  -4 641.517 44.2946   1
  -4  -6  -5 700.466  43.904   1
   5   6   4 740.428 46.4379   1
   6   5   4  805.25 48.3785   1
  -5  -6   4 769.395 25.3546   1
  -6  -5   5 1704.27 57.6238   1
  -6  -5  -5 1718.27 58.5776   1
  -5  -5   6 1989.14 56.7162   1
  -5  -6   5 1816.46 56.9386   1
  -5  -5  -6 1981.66 59.4971   1
  -5  -6   5 1704.19 68.7764   1
  -6   5   5 1887.98 70.5549   1
  -5  -5   6 1973.49 75.7997   1
  -5   6   5 1800.36 66.3179   1
  -5   5   6 1919.72   68.56   1
   5   5  -6 1725.49 72.7712   1
   6  -5   5 1986.12  90.794   1
  -6  -5  -5 1727.95 95.0689   1
  -5  -6  -5 1480.58 59.7529   1
   6   6   0 194.095 31.9519   1
  -6  -6   0 170.357 16.1529   1
   0   6   6 206.098 24.9087   1
   6   0   6 169.307 22.8732   1
   0   6  -6 180.452 26.4869   1
   0  -6  -6 197.252 27.9082   1
  -6   0  -6 161.642 26.6835   1
   1   6  -6-4.80807 10.2472   1
  -1  -6   6 8.75041 21.7028   1
  -1   6  -6 0.33211 21.2407   1
   1  -6  -6 14.3819 19.2192   1
   1   6  -6 15.7247 27.3775   1
  -1  -6  -6 -11.363 30.6758   1
  -6  -6  -2 1579.66 51.3777   1
  -6  -6   2 1653.08 50.9947   1
   6   6  -2 1513.72 57.9048   1
   2   6  -6 1558.30 49.4598   1
   2   6   6 1546.02 77.9006   1
  -2   6   6 1558.22 56.2464   1
   2   6  -6 1471.80 61.2995   1
  -6   2   6 1469.06 64.5557   1
  -2  -6   6 1531.05 57.7816   1
  -6  -2   6 1505.14 67.4154   1
   2  -6  -6 1549.98 56.9358   1
   6   2   6 1548.32 76.2114   1
  -3  -6  -6 31.8834 50.4203   1
   3   6  -6  6.0502 31.8105   1
  -3   6   6-12.6924 19.3491   1
   3  -6  -6-16.3023 29.7023   1
  -3  -6   6  2.1515 27.5941   1
  -3  -6  -6 4.20956 27.7746   1
   3   6   6-15.9281 27.0067   1
  -4  -6  -6 30.7555 40.7106   1
  -4  -6   6 38.1336 20.4213   1
  -6  -6   4 31.9501  14.429   1
  -6  -4  -6 50.7197  18.026   1
  -6  -4  -6 43.8164 25.2719   1
   4   6  -6 34.9872 31.9261   1
  -4  -6   6 20.1866 32.9079   1
   4  -6  -6 41.2251 28.3596   1
  -4   6   6 19.4646 22.9446   1
   6  -4   6 24.8023 17.6775   1
  -5   6   6-13.3711 30.7853   1
  -5  -6   6-53.3833  38.323   1
  -6  -6   6  373.18 15.9811   1
  -6   6   6  375.95 35.0601   1
   1   0   7 40.8091 14.5868   1
   0  -1   7 24.2469 12.0976   1
  -1   0   7 37.3322 11.1187   1
   0  -7  -1 23.6503 18.2036   1
  -1   0   7  26.309 21.0964   1
  -1  -7   0 34.5107 14.5121   1
   0   1  -7 49.0514 21.8476   1
   0  -7   1 35.4637 8.49105   1
   1   0  -7  34.193 23.6956   1
   0   7   1 45.2101 21.5744   1
   1  -7   0 22.3989 13.4821   1
   2   0   7 550.832 28.4276   1
   2   7   0 581.609 27.5329   1
   0   2   7 530.317 21.0474   1
   0   7  -2 572.632 26.6586   1
   2   0  -7  523.22 32.3189   1
   0   2  -7 642.996 30.1583   1
  -2   0   7 518.512 30.9912   1
   0  -7  -2 541.601 20.9326   1
   2  -7   0 646.651   31.71   1
   0  -7  -2 636.227 35.4574   1
  -2   1  -7 862.007 28.4769   1
  -1   2  -7 892.738 27.8785   1
   1   2   7 903.858  29.789   1
  -2  -1  -7 846.489  30.512   1
   1  -7  -2 907.317 46.9587   1
  -1   7  -2 1013.27 35.1552   1
   1   2  -7 1006.28 42.9601   1
  -1  -7   2 963.036 35.5477   1
   1  -2  -7 932.308 41.1892   1
  -2   7  -1 863.114 33.4252   1
  -1  -2   7 1036.50 39.9692   1
  -1   2   7  887.95 38.5011   1
  -7   1  -2 943.127 46.4248   1
  -1   7   2 885.658 47.0406   1
   2  -7   1  839.58 45.5425   1
  -1  -7  -2 1042.96 48.3723   1
  -7   2  -2-10.9506 14.4775   1
  -3  -7   0 193.475 44.6045   1
  -3   0  -7 202.617 13.3406   1
   3   7   0 239.291 16.0382   1
   0   3   7 266.798 21.2406   1
   0  -7  -3 253.939  23.576   1
   3   0  -7 247.582 30.9949   1
   0   7  -3 223.236 19.9505   1
  -3   0   7 251.841 27.1842   1
   0  -7  -3 215.367 11.9706   1
   0  -7   3 247.784 15.5952   1
   0   7   3 213.621 21.8953   1
  -7   0  -3 268.459 21.8859   1
   3  -7   0 212.227 15.3426   1
  -3  -7  -1 43.2485 42.8817   1
  -3  -1  -7 61.0682 10.3749   1
   3   7  -1  60.752 13.0673   1
  -1   3  -7 47.6202 10.6189   1
   3   1   7 45.2153 23.2143   1
   1   3   7 65.7746 10.9346   1
  -3  -7   1 66.1423 42.5405   1
  -1   7   3 58.9623 19.0149   1
   1  -7  -3 66.1584 20.1954   1
  -3  -1   7 51.4339 27.9699   1
  -3   1   7 80.9918 24.6783   1
  -1  -7   3 60.6608 16.4476   1
   1  -7  -3 66.4656 12.1162   1
   3   1  -7 89.7422  30.613   1
  -1   3   7 72.4291 22.9165   1
   1   7  -3 72.2992 22.3245   1
   1  -3  -7 81.1507 24.1008   1
   3  -7   1 72.9563 11.8625   1
  -3   7   1 45.3097 14.1368   1
   1   7   3 77.6778 20.3095   1
  -1  -7  -3 94.7009 21.3624   1
  -7  -1  -3 58.0806 20.0956   1
   3  -7  -1 50.2588 15.0186   1
   2   3   7 727.722 25.5118   1
   3   7   2 708.401 27.3275   1
   2   7  -3  774.98 25.3458   1
  -2  -7  -3 735.479 41.3092   1
  -7   2  -3  737.74 36.7084   1
  -7   3  -2 754.607 35.3767   1
   3   2  -7 707.556 38.7613   1
   3  -2  -7 706.386 38.8477   1
  -3   7   2 633.394 26.0638   1
   2  -3  -7 721.288 36.4561   1
  -3  -2   7 692.899 37.5767   1
  -3   2   7 654.548 34.0672   1
  -2  -3   7 788.172  35.717   1
  -2   7  -3 688.322 27.0537   1
  -2   3   7 715.324 33.4133   1
   3  -7   2 721.073 35.2717   1
   2   7   3 706.638 40.1688   1
  -3   7   2 680.598 36.3587   1
  -2   7   3 676.374  38.247   1
  -7  -2  -3 716.095 40.7099   1
  -7  -3  -3 24.2903 23.6789   1
  -7   3  -3-10.2395 13.8944   1
  -4   0  -7 2.81559 16.7868   1
  -4  -7   0 7.41067 27.7014   1
   4   7   0 4.16033 14.9017   1
   4   0  -7-19.9122 35.7525   1
  -4   0   7 32.8068 33.5578   1
   0   7  -4-6.09352  21.284   1
   0   4  -7 19.4935 24.8362   1
   0  -7   4 46.3367 16.4617   1
   0  -4   7 18.9448 23.8687   1
  -4   7   0 2.98651 15.0463   1
  -7   0  -4-3.88247 19.7394   1
   0  -7  -4 21.7731 22.4132   1
   0   7   4-4.20956 21.4602   1
   7  -1   4 2.17589 22.2424   1
  -4   7   1 6.38545 12.5007   1
   1   7   4-4.82109 19.7821   1
   4   1   7 -5.8877 25.5703   1
  -4  -7   1-17.4981 27.1967   1
  -4  -7  -1-12.2203 29.9151   1
   1   4   7 6.07671 16.7046   1
   4   7  -1-10.4555 16.1766   1
  -4  -1  -7-4.67138 12.5829   1
   7   1   4 9.75595 25.7978   1
   1  -7  -4-0.82485 21.5882   1
   1  -7  -4-5.29934 14.5696   1
   4   1  -7-21.1685 35.6659   1
   1   4  -7 8.14394 27.1032   1
  -4  -1   7 0.05776 29.9478   1
  -4   1   7 29.3846 31.2619   1
  -1  -4   7 12.8079 22.8435   1
   1  -4  -7 11.9271 24.0131   1
   4  -7   1-6.30012 10.5239   1
  -1   7   4 18.9146 21.4319   1
  -1  -7  -4-0.27021 24.9303   1
  -7  -1  -4 3.27094 21.8016   1
   4  -7   2 74.6344 9.30326   1
   7   2   4 65.6606 27.8179   1
   7  -2   4 114.398 19.9696   1
   2   7   4 104.116 23.8797   1
  -2   7   4 90.1785 24.0357   1
  -7   2  -4 71.4915 17.9345   1
  -4  -2  -7 87.0782 27.3491   1
   2   4   7 65.8313 23.7364   1
  -4  -2  -7 92.8643 12.3834   1
   4   2   7 88.0921 29.2005   1
  -4  -7  -2 61.4376 35.2775   1
  -4  -7   2 67.9116 30.1372   1
   4   7  -2 91.9645 17.3613   1
   2   7   4 119.905 21.3983   1
   2   7  -4 97.1865 12.7184   1
   4   7   2 98.8133 19.6742   1
  -7   4  -2 145.372 12.2374   1
  -2  -7  -4 93.3926 24.3344   1
  -7  -2  -4 106.832 23.9367   1
  -4   7   2 108.723 16.0164   1
  -2  -4  -7 129.942 31.0904   1
  -2   4   7 76.3856 21.9059   1
   2  -4  -7 76.2412 26.7574   1
   2   7  -4   89.80 27.0032   1
   2  -7  -4 69.0358 18.4548   1
  -4   7   2 71.9237 19.3212   1
  -4  -2   7 91.3595 32.8366   1
   4   2  -7 58.0906  36.778   1
   4  -2  -7 99.4168 35.1326   1
  -4   2   7 92.5724  28.375   1
  -2  -4   7 117.221 26.2532   1
   2   4  -7 41.1962 33.8033   1
   7   3   4 87.6613 32.4117   1
   4   3   7 68.2916 25.8127   1
   7  -3   4  103.49 19.7701   1
  -3  -4  -7   60.10 31.8139   1
   3   4   7  80.451 25.5002   1
  -7  -4  -3 77.5214 24.8459   1
  -7   4  -3 98.6972 12.2763   1
  -7  -3  -4 75.6584 27.0644   1
  -3  -4   7 83.7351 16.3483   1
  -4  -7  -3 69.7912 39.3891   1
  -4  -7   3 100.627 28.3449   1
  -4  -3  -7 80.3941 15.4732   1
  -3  -7  -4 131.834  71.234   1
  -3  -7   4 34.1283 73.1605   1
   3   4   7 94.3978 17.8865   1
   3   7  -4 70.7217  11.972   1
   4   3   7 98.6439 26.2774   1
   4   7   3 89.8779 19.4897   1
  -7   3  -4 60.2707 17.0809   1
   4   7   3 39.7064 29.1543   1
  -4   7   3 94.8574 20.2674   1
  -4  -3   7 83.6631 33.4863   1
   4  -3  -7 39.0158 34.5397   1
   3  -4  -7 64.0253 28.6776   1
  -4   3   7  89.439 31.0895   1
  -4   7   3 106.608 16.7958   1
  -3   7   4 84.6306 14.2394   1
  -3   4   7 124.397 25.0117   1
   7  -4   4-6.64144 17.6204   1
  -7  -4  -4 4.97752 28.1728   1
   7   4   4-35.6411 39.5192   1
  -7  -4  -4-18.4955  21.904   1
   0   7   5 315.803 27.3341   1
   5   0   7 334.248 28.4872   1
  -7   0  -5  257.58 26.0214   1
   0  -7  -5 253.072 27.8976   1
   5   7   0 311.159 24.0397   1
  -7  -5   0 353.337 22.8651   1
  -5  -7   0 296.137 21.0549   1
   0  -5   7 264.736 26.2035   1
   5   0  -7 265.039 38.3441   1
   0   7  -5  220.19 24.6991   1
  -5   0   7 303.521 33.3371   1
   0   5  -7 297.846 27.0433   1
   0  -7   5 264.158 22.5808   1
   1  -7  -5 51.8089  23.537   1
   7   1   5  39.166 21.9725   1
   5   1   7 67.5806 25.4145   1
   7  -1   5 41.7543 17.6351   1
  -5  -1  -7 40.2184 24.9163   1
  -7   1  -5 7.42362 21.4602   1
  -7  -1  -5 64.1532  23.068   1
   1   7   5 57.8531 24.6464   1
  -5   7   1 28.9834 12.0174   1
   1   5   7 27.3195 24.8877   1
   5   7  -1 41.9542 23.7643   1
  -7  -5   1 48.1716 18.3346   1
   5   7   1 22.8104 20.0644   1
  -5  -1  -7 59.8758 18.4765   1
  -7  -5  -1 37.9014 19.5239   1
   1   5   7  63.128 19.2593   1
  -5  -7   1 57.6798  17.389   1
  -5  -7  -1  31.953 21.8524   1
   1   7  -5 59.6221 22.3586   1
  -1   7   5  43.532 24.5893   1
  -1  -7  -5 69.3867  27.562   1
  -5  -1   7 52.4158 34.6554   1
   1   5  -7 33.8465 26.0059   1
  -5   1   7 43.4632  36.157   1
   5  -1  -7 67.2164 35.0743   1
   1  -7  -5 49.1813 16.9382   1
   1   7  -5 70.6964 29.4141   1
   5   1  -7 12.0282 37.2975   1
  -1   7  -5 49.2824 20.3603   1
   1  -5  -7 42.8568 23.7823   1
  -1  -5   7 70.4509 24.0427   1
   2   7   5 874.778 41.5865   1
   7   2   5 704.903 42.6686   1
   7  -2   5 769.739 38.5309   1
   5   2   7 723.234 43.7223   1
   2   5   7 712.326 41.6752   1
  -5   7   2 776.522 38.1061   1
  -2   7   5 868.535 43.0052   1
  -7   2  -5 648.472  40.374   1
   5   2   7 692.693 41.8254   1
   7   5   2  586.69  45.102   1
   5   7   2 662.391 32.3498   1
  -7  -5  -2 738.559  29.847   1
  -5  -2  -7 795.663 28.6284   1
   5   7  -2 797.362 33.2928   1
   2   7  -5 758.221 24.8584   1
   2   5   7  742.90 28.5873   1
  -5  -7   2 633.955  28.592   1
  -2  -5  -7 648.349 103.063   1
  -2  -7  -5 671.568 43.2894   1
  -5  -2  -7 668.012 45.0508   1
  -7  -2  -5 641.475 42.8169   1
   5  -2  -7 582.898   43.94   1
   2   7  -5 526.584 38.6242   1
   2  -7  -5 628.759 31.3382   1
   2   5  -7 745.055 40.6268   1
  -5   2   7 705.173 41.1407   1
  -2  -5   7  787.19 33.3534   1
  -2   5   7 802.294 32.5637   1
  -5  -3  -7 178.281 30.7084   1
   7  -3   5 146.609 17.9239   1
   7   3   5 184.581 28.5047   1
   5   7   3 134.123 39.0825   1
  -5  -7  -3 123.883 27.2933   1
  -7  -3  -5 179.802  28.931   1
   3   7   5  169.08 18.7451   1
   5   3   7 180.135  33.368   1
   3   7  -5 185.529 14.1167   1
   5   7   3 169.673 24.6853   1
  -7  -5  -3 158.834 18.9304   1
   3   5   7 200.451 19.6107   1
  -5  -3  -7 165.491 14.8135   1
  -3  -5  -7 99.6103 48.1831   1
  -5  -7   3 141.429 19.5922   1
  -5  -7  -3 153.716 28.7601   1
   3   7   5  176.19  30.111   1
  -3  -5  -7 127.937 30.8486   1
   3  -7  -5 148.786 22.9626   1
   5   3  -7 142.707 38.8012   1
  -5   3   7 208.162 33.7791   1
   5  -3  -7 129.798 36.1874   1
  -5   7   3 157.493 26.9189   1
   3   5  -7 120.325 39.4215   1
  -3   5   7 200.711 23.1388   1
  -3   7   5  173.94  18.128   1
  -3  -5   7 168.741 31.5973   1
  -5  -3   7 121.134 36.5915   1
   5  -4  -7  48.546 33.8756   1
   4   5  -7 0.41875 34.9872   1
   4  -5  -7 25.0239  34.323   1
  -4   5   7 12.2448 26.0202   1
  -4  -5   7 14.0064 35.6226   1
  -4  -7   5 12.8657 31.0019   1
  -7  -4  -5 29.7798 31.0314   1
   7  -4   5  13.738 15.1744   1
  -4  -5  -7  49.361 31.4545   1
   5   7  -4 36.8427  28.209   1
   4   7  -5 43.6982 20.9499   1
   5   4   7 49.4869 30.6322   1
  -5  -4  -7  37.709 17.3634   1
   4   5   7 47.5558 22.3516   1
  -4  -5   7  24.098 12.6475   1
  -4  -7   5 34.3343 31.8946   1
  -5  -4   7  37.267 14.2564   1
  -5  -7   4 43.7313 20.4051   1
  -5  -4   7-19.3491 34.7851   1
  -4   7   5 1.79051 19.9267   1
   0  -7   6 386.202 27.0229   1
   0  -6   7 331.476 27.6235   1
   0   7  -6 406.273  29.882   1
   0   6  -7 378.607 30.7451   1
   0  -7  -6 328.275 31.2585   1
   7   0   6 302.178 25.5846   1
   6   7   0 351.591 33.5956   1
  -7  -6   0 428.337 23.8218   1
   7   6   0 436.664  41.502   1
  -6   0  -7 291.925 29.9903   1
   0   7   6  392.40 30.3548   1
   6  -1  -7 625.885 46.3253   1
   1   7  -6 736.738 41.3612   1
  -6   1   7 727.685 49.7701   1
   1   6  -7 801.947 40.9234   1
   1  -7  -6  765.69 34.9926   1
   1  -6  -7  876.86 36.6691   1
  -1   7  -6 967.483 37.7377   1
  -1  -6   7  932.02 37.7165   1
   7   1   6 733.843 46.4513   1
   7  -1   6 858.267 44.3951   1
   6   1   7 910.233 47.2432   1
   6  -1   7 912.608 47.3287   1
  -6   7   1 880.296 41.8855   1
  -1   7   6  991.48 48.1081   1
  -1  -7  -6 850.019 50.3733   1
  -6  -1  -7 879.059  49.525   1
  -7  -1  -6 783.363 47.4238   1
  -7   1  -6 766.155 46.3845   1
   7   6  -1 1007.62 47.2844   1
   7   6   1 807.439 43.2417   1
   6   7  -1 965.323 40.5344   1
   6   7   1 868.995 40.7228   1
  -7  -6   1 825.173  31.452   1
  -7  -6  -1 945.812 32.9324   1
   1   6  -7 833.648 27.4911   1
  -6  -7   1 887.719 31.6334   1
  -6  -7  -1 978.173 32.9122   1
   1   7  -6 896.163 30.7069   1
   1   7   6 977.187 48.3613   1
   6  -2  -7-1.25625 37.0954   1
   2   7  -6-23.1178 37.2398   1
   2   6  -7 17.5297 29.5868   1
  -6  -2  -7 12.1025 30.3202   1
   2  -7  -6-2.42586 22.2515   1
  -7  -2  -6 33.8614 24.8736   1
   6  -2   7-13.7806 25.2432   1
   6   2   7-0.05689 27.5613   1
  -7   2  -6-5.20507  22.214   1
  -2  -6   7-4.76507 24.3308   1
  -6   2   7 26.2945 35.6515   1
   6   7  -2-3.89963 33.9047   1
   2   6  -7 14.5231 13.0189   1
   2   6   7  8.0114 18.5817   1
  -2  -6  -7 3.59631 129.424   1
  -6  -7   2-1.15482 15.3869   1
  -6  -2  -7 26.8651 19.4008   1
  -7  -6   2  19.385 15.0778   1
   2   7  -6 9.38144 10.2659   1
   7  -2   6 20.5643 17.8054   1
   2  -6  -7 13.5732  23.912   1
   7   2   6 11.8892  23.949   1
   7   3   6 870.526 54.6378   1
   7  -3   6 1092.68 50.9786   1
   6  -3   7 1007.18 52.9667   1
  -7  -3  -6 1184.51 56.2893   1
  -6  -3  -7 930.257 56.3788   1
   3  -7  -6 1046.64 43.8607   1
  -3   6   7 1023.13 41.8825   1
  -3   7   6 1053.05 39.4396   1
   6   3   7 1090.33 53.8711   1
   6   7  -3 1009.43 46.9506   1
   3   7  -6 991.796 37.6294   1
  -7  -6   3 1195.82 37.3282   1
  -6  -3  -7 1139.70 38.0397   1
   3   6   7 1123.39 39.0694   1
  -6  -7   3 1031.80 37.0294   1
  -6   3   7 956.495 50.1166   1
  -3  -6   7 1063.12 45.7945   1
   3   6  -7 1119.32  51.713   1
   3  -6  -7 862.883 44.7822   1
   7  -4   6 253.399 20.6479   1
   6  -4  -7 242.672 42.5732   1
  -4   7   6  156.54 21.5338   1
   4  -7  -6  229.98  27.125   1
  -6   7   4 249.228 30.9228   1
   4  -6  -7 251.249  30.562   1
   6   7  -4 285.936 37.8019   1
   4   7  -6 287.104 25.0814   1
  -7  -6   4 321.671  19.217   1
  -6  -7   4 319.015 17.7887   1
   6  -4   7 297.827 25.0014   1
  -4  -7   6 158.172 37.6177   1
   4   6  -7 158.995 40.4622   1
  -4  -6   7 224.363 34.8194   1
  -4   6   7 297.283 25.1526   1
  -5   7   6 197.534 27.7727   1
  -5   6   7 198.747 31.3243   1
   5  -6  -7 169.449 31.6406   1
  -6   5   7 172.727 36.4487   1
  -7  -6   5 201.964 15.7214   1
  -6  -7   5 231.347 17.1248   1
  -5  -7   6 183.965 24.1955   1
  -6   7   5 213.548 30.5599   1
  -5  -7   6 247.423 36.8706   1
  -7   6   6-43.3333 36.2292   1
  -7  -6   6 9.07256 15.9413   1
  -7   0  -7 277.518 31.9938   1
   0   7  -7 284.273 31.3437   1
   1   7  -7 111.878 36.7501   1
   1  -7  -7 151.212 24.1899   1
   7   2   7  421.71 33.4703   1
   7  -2   7 504.678 30.6238   1
  -7  -2  -7 432.646 35.8733   1
   7   7  -2 472.036 42.7142   1
   2   7  -7 485.882 19.0312   1
   2   7  -7 383.112 39.8817   1
  -3   7   7 10.1655 21.3273   1
   3   7  -7-24.8288 19.9854   1
   3  -7  -7 41.5283 30.0924   1
   7  -4   7-34.4302 21.9867   1
  -4   7   7 26.3234 22.4537   1
   4  -7  -7 5.84805 29.0958   1
  -7   4   7-30.9874 38.3806   1
  -7  -7   4-7.80082 13.9223   1
  -5   7   7 14.3819 25.0094   1
   5  -7  -7-33.6154 32.6914   1
  -7   6   7 806.019 45.2069   1
  -6   7   7 894.202 41.7017   1
  -7   7   6 754.239  42.402   1
   0   0   8 2633.25 80.5391   1
   0   8   1-16.0845 25.1294   1
   1  -8   0-33.7618 16.7532   1
  -1   0   8-24.2152 23.1757   1
  -1  -8   0 7.82627 12.3748   1
   0  -8  -1 0.93862 20.8629   1
   0  -8   1  -2.989 8.40386   1
   1   0  -8-3.07564 25.9191   1
   0   1   8 6.55862 8.36517   1
   0  -1   8 21.7116 13.4853   1
   1   0   8 8.26955 15.5269   1
  -1   0   8-6.30242 8.86836   1
  -1   0  -8 2.98709 30.1494   1
  -1  -8  -1 344.359 25.3046   1
   1  -8  -1 376.358  25.834   1
   1   1  -8 320.733 30.9566   1
  -1  -1   8 324.935 27.3055   1
   1   1   8 408.072 17.4623   1
  -1  -1   8  312.66 12.8571   1
  -1  -1  -8 344.082 57.5647   1
  -1   1   8 421.854 19.2974   1
  -1   1  -8 452.418   21.72   1
  -1  -8   1 385.249 18.5274   1
   2  -8   0 1431.34 67.7873   1
   0  -8  -2 1586.35 69.5605   1
   0   8  -2 1377.27 50.8095   1
   2   0  -8 1472.42   57.41   1
  -2   0   8 1353.92 53.9591   1
   2   0   8 1347.55 52.0558   1
   0   2   8 1463.12 47.4377   1
  -2   0  -8 1511.05 47.4071   1
   0  -8   2 1398.61 48.8271   1
   1   8   2 671.724  35.349   1
  -1   8   2 493.031 31.2758   1
  -2  -8  -1 581.531 34.5833   1
   2  -8   1 573.624 27.9215   1
  -1  -8  -2 556.302 32.0088   1
   2  -8  -1 451.533 28.7701   1
  -1   8  -2 618.622 26.2773   1
   2   1  -8 525.342 35.4353   1
   1  -2  -8 576.343 34.0565   1
  -1   2   8 577.166 32.5422   1
  -1  -2   8 486.052 32.2857   1
  -2   1   8 560.084 32.2226   1
   2   1   8 606.386 27.0401   1
   1   2   8 626.754 21.6185   1
  -2   1  -8 522.999 20.0282   1
  -1   2  -8 640.299 19.8898   1
   2   8  -1 592.018 29.6007   1
   2   8   1 686.645 35.0099   1
  -2  -1  -8 651.157 28.5457   1
  -2  -1   8 488.777 22.5341   1
  -2  -8   1 548.792  28.731   1
  -2   8  -1 637.856 22.6945   1
   1   2  -8 547.103 35.9139   1
  -1  -8   2  606.32 25.1512   1
  -2  -1   8 560.214 32.4534   1
   2   8   2 417.842 34.7917   1
  -2   8   2 349.209 26.2431   1
  -8   2  -2 455.742 25.6881   1
  -2  -8  -2 368.351 29.4286   1
   2  -8  -2 410.959 25.9093   1
  -2   8  -2 390.491 18.9174   1
  -2  -2   8  418.20 29.7966   1
  -2   2   8 417.406 28.7721   1
   2  -2  -8 402.634 32.0317   1
   2   2   8 352.319  20.878   1
  -2   2  -8 362.558 14.7411   1
   2   8   2 323.998 27.4673   1
  -2  -8   2 367.806  23.111   1
   2   2  -8 412.627 34.9189   1
   0   8   3 242.036 24.3995   1
   3  -8   0 247.099 18.6149   1
   0   3  -8 233.373 27.4716   1
   0   8  -3 245.445 24.0081   1
   3   0  -8 279.955 35.7752   1
   0  -8  -3 291.579 14.1446   1
  -3   0   8 305.586 29.6997   1
   0  -8   3 308.806 18.2281   1
  -3   0  -8 277.968 14.7013   1
   3   8   0 311.095 17.9808   1
   0   3   8 283.972  19.734   1
  -3  -8   0 228.361 93.5646   1
  -3   8   1 143.794 19.9569   1
   1   8   3 122.433 23.4823   1
  -8   1  -3 167.828  20.129   1
   3  -8   1 160.646 16.1336   1
  -1   8   3  141.02 22.4593   1
  -1  -8  -3 161.898 27.2807   1
  -8  -1  -3 151.957 24.1804   1
   1   8  -3  126.65 23.1782   1
   1  -8  -3 131.949 12.7842   1
  -1   8  -3  119.95 17.0564   1
  -3  -1   8 104.586 29.2705   1
  -1  -8   3 123.776 17.8362   1
  -3   1   8 177.535 30.0672   1
   3   1  -8 120.845 34.8011   1
   1  -3  -8 124.152 26.8165   1
   3   1   8 118.932 25.6052   1
   3   8  -1 148.829 18.2468   1
  -3  -8   1 131.994  90.576   1
  -3   1  -8 144.637 13.7102   1
  -1   3  -8 180.678 7.87494   1
   1   3   8 128.196 13.6798   1
   3   8   1  145.79 18.4724   1
  -3  -1  -8 160.927 13.7696   1
  -3  -8  -1 139.256 78.6898   1
   3  -8  -1 156.465 19.2752   1
   2   8   3 724.031 44.7878   1
   3  -8   2 748.207 38.6269   1
  -8  -2  -3 731.042 44.1921   1
  -8   3  -2 867.668 39.0018   1
  -3   8   2 844.686 40.2895   1
  -8   2  -3 802.292  40.027   1
  -2  -8  -3 769.056 44.3961   1
   2  -8  -3 757.764 41.5396   1
  -3  -8  -2 693.213 42.9654   1
  -3  -8   2 644.036 36.1135   1
   3   2  -8 644.195 40.9601   1
   3  -2  -8 778.425 40.8479   1
   2  -3  -8 709.433  37.233   1
  -2   8  -3 705.058 27.5179   1
  -3  -2   8 758.759 37.1826   1
  -3   8   2 659.558  24.254   1
  -3   2   8 746.557 34.1967   1
  -2  -3   8 858.666 36.1615   1
  -2   3   8 723.396 33.5011   1
   3   2   8 753.003 33.2858   1
   3   8  -2 752.659 28.6377   1
   2   8   3 672.294 35.0952   1
   3   8   3 94.3454 28.2167   1
  -8   3  -3 135.972 19.4446   1
  -3   8   3 118.565 19.7139   1
  -3  -8  -3 158.271 26.7402   1
  -3   3   8 128.888 27.1199   1
  -3  -3   8 109.135 28.8664   1
   3  -3  -8 149.898  30.326   1
  -3  -8   3 74.9416 30.6849   1
  -3   8   3 102.204 11.1365   1
  -3  -3  -8  52.513 26.0382   1
   3   8   3 106.944 16.9468   1
  -3  -8  -3 64.4816 84.8757   1
   4  -8   0 3347.75 157.874   1
   8   0   4 3501.50 160.512   1
   0   8   4 3412.68 158.978   1
   0  -8  -4 3416.46  159.12   1
   4   0  -8 3740.51 121.238   1
   0   8  -4 3517.75 115.546   1
  -4   0   8 3404.30 118.802   1
   0   4  -8 3289.60 117.151   1
   0  -8  -4 3615.78 114.001   1
  -4   0  -8 3642.39 111.683   1
   4   8   0 3758.86 112.516   1
  -1  -8  -4 23.5792 26.2814   1
   8  -1   4 0.52619 28.2723   1
  -4   8   1 23.0388 16.4544   1
   1  -8  -4   4.366 25.4138   1
   4  -8   1 15.3308 11.8324   1
   1   8   4 9.95505 25.1152   1
  -1   8   4 20.4932  21.631   1
  -8  -1  -4 39.5215 23.6791   1
  -8   1  -4 25.1009 23.1811   1
  -1   8  -4 27.9407 20.3022   1
  -1  -4   8 42.5824 24.7931   1
   1   8  -4 15.2338 26.9444   1
   4   1  -8 44.0553 39.8391   1
   4  -1  -8-23.8254 36.6911   1
   1  -8  -4-0.01444 14.1797   1
  -4  -1   8 23.7099 32.9657   1
   1  -4  -8 40.6475 27.0168   1
  -1  -8   4  3.6821 18.9881   1
  -4  -8  -1-24.9221 48.6522   1
  -4  -8   1 24.9946  46.024   1
   4   8  -1  26.253  18.506   1
   4   8   1 36.5207 19.3778   1
  -4  -1  -8 20.9563 13.2438   1
   2  -8  -4 1038.44 53.2839   1
   8   2   4 1012.63 59.5719   1
   2   8   4 1092.72 54.0877   1
  -8   4  -2 1071.93  49.371   1
  -8  -2  -4 1007.34 55.1254   1
   4  -8   2 991.466 49.0167   1
  -2  -8  -4 1043.46 54.6763   1
   2   8  -4 903.747 44.7306   1
   4  -2  -8 1044.72  51.485   1
  -4   8   2 1088.75 38.5255   1
   2  -4  -8 1106.97 46.1481   1
  -4  -2   8 1004.38 47.8602   1
  -2  -8   4 1018.04 42.4003   1
  -4   2   8 1119.97 47.0438   1
  -2   8  -4 1026.76 38.9735   1
  -2  -4   8 1096.30 44.9359   1
  -2   4   8 1111.40 43.0517   1
   4   8  -2 1156.74 41.2251   1
   8   3   4  87.064 38.7401   1
  -4   8   3  74.734  20.992   1
  -8   4  -3 39.9766 12.3448   1
   3   8   4 73.7953  30.193   1
  -3  -8  -4 86.7654 29.9941   1
  -8   3  -4 76.1703 16.7543   1
  -8  -3  -4 74.6629 31.0889   1
  -3  -8   4 81.3384  28.418   1
  -3   8   4 59.7656  12.809   1
  -4   3   8 84.6162 29.9487   1
  -4   8   3 68.8914 16.6355   1
  -3   4   8 66.1334 23.8549   1
  -3  -4   8 62.3358  30.237   1
   4  -3  -8 70.5953 36.3017   1
   3  -4  -8  67.794 31.4212   1
  -4  -8   3 61.0736 45.6923   1
  -4  -3  -8 24.6877 18.5558   1
  -3  -4  -8 23.5125 41.6015   1
   3   4   8 72.9526 18.6168   1
   4   8  -3 52.7398  18.118   1
   3   8  -4 82.8669 14.5456   1
  -3   8   4 94.4734  23.211   1
  -4  -8  -3 35.5964 27.1917   1
  -4  -8   4 3853.02  126.40   1
   4   4   8 3845.86 119.502   1
   4   8  -4 3823.40 116.828   1
   0  -8  -5 207.605 30.6956   1
  -8   0  -5 227.615 26.6162   1
   0   8   5 256.115 27.7983   1
   8   0   5 254.394 28.8218   1
   5   0   8 230.986 31.9198   1
   0  -8   5 181.679 22.3437   1
   0   8  -5 221.388  29.593   1
   0   5  -8 240.867   29.06   1
  -5  -8   0 282.886 31.8459   1
   1  -8  -5 277.746  29.051   1
  -8   5  -1 287.288 18.0796   1
  -5   8   1 365.933 21.2296   1
   1   8   5  343.79 27.7348   1
  -1   8   5 290.289 29.0662   1
   5   1   8  325.90 33.1632   1
  -8   1  -5 344.189 27.9765   1
  -1  -8  -5 302.534  32.351   1
   8  -1   5 367.569 29.0021   1
   1   8  -5  235.64 31.7737   1
   1  -8  -5 294.626 20.0008   1
  -5   1   8 242.716 38.9782   1
   1   5  -8 367.171 32.2161   1
  -1   8  -5 287.421 25.0363   1
  -1  -8   5 290.424 23.6655   1
  -1  -5   8 289.096 28.0674   1
   5   8  -1 270.598 24.1134   1
   1   5   8 345.357 22.3081   1
  -5  -8   1 270.369 31.2225   1
  -5  -8  -1 373.033 32.3136   1
   8   2   5 342.112 34.4865   1
   8  -2   5 349.422 27.5506   1
  -2  -8  -5 217.376 30.8099   1
  -5  -2  -8 169.222 34.5758   1
  -5   8   2 325.516 21.6079   1
  -8  -2  -5 279.623 31.5959   1
   5   2   8 371.409 33.5366   1
  -8   2  -5 266.269 26.2495   1
  -2   5   8 273.602 27.9796   1
  -2  -5   8 258.238 29.2488   1
   2   8  -5 176.438  31.612   1
   5  -2  -8 189.231 37.2434   1
   2  -8  -5  192.22 23.3837   1
  -5   2   8 221.995 35.8299   1
  -2  -8   5 314.264  25.616   1
   2   5  -8 221.937 35.9165   1
   2   5   8 246.028 17.8082   1
   2   8  -5 261.752 14.8175   1
   8   3   5 429.532 38.5737   1
  -8  -3  -5 418.425 35.8862   1
  -5   8   3 378.534 24.4561   1
   3   8  -5 363.878 37.3109   1
   3  -8  -5 304.979 23.4793   1
   5  -3  -8 360.904 38.1046   1
  -5   8   3 386.736 24.2529   1
   3  -5  -8  344.89 34.2783   1
  -5   3   8 407.544 35.2649   1
  -3   5   8 391.256 29.4908   1
  -3   8   5 392.656 19.7684   1
   5   8  -3 415.312 29.4344   1
   3   8  -5 404.683 18.6573   1
   3   5   8 419.468 21.3518   1
  -5  -8   3 348.074 34.8121   1
  -4  -8   5  88.125 30.0643   1
  -5   8   4 77.6851 21.6316   1
   5  -4  -8 59.2313 36.8069   1
   4  -5  -8 93.4677 38.9012   1
  -4   8   5 26.9154 17.8331   1
  -4   5   8 65.4115 25.8475   1
  -4  -8   5  35.144 76.0715   1
  -4  -5  -8 40.3749 41.1385   1
   5   4   8 0.06342 31.9846   1
   5   8  -4 75.4915 27.2933   1
  -5  -8   4 38.7687  31.048   1
  -5  -4  -8  58.592 20.3357   1
  -5   5   8 172.077 32.1172   1
   5  -5  -8 163.298  35.712   1
  -5  -8   5 133.032 37.4148   1
   5   8  -5 130.547 29.5223   1
  -5  -8   5 90.4162 38.7583   1
   0  -8  -6 251.194 34.3381   1
   8   0   6 254.863 26.2628   1
   0   8  -6 254.311 26.8812   1
   1  -8  -6 288.384 31.5965   1
   8  -1   6 411.613 26.8613   1
  -6   8   1 385.346 20.5506   1
   8   1   6 275.527 29.9749   1
  -1   8   6 405.341 33.6677   1
   6  -1   8 402.426 35.6573   1
  -8   1  -6 389.953 34.2348   1
   6   1   8 359.562 35.8384   1
   1   8  -6 311.145 34.5068   1
   1   6  -8 295.565 35.1121   1
   1  -8  -6 357.352 22.9944   1
  -1   8  -6 321.238 28.5752   1
   1  -6  -8 340.876 26.8884   1
  -1  -8   6 374.015 27.3102   1
  -1  -6   8 298.279 29.8146   1
   6   8  -1 370.234  33.439   1
  -8  -6   1 328.383 24.3903   1
  -6  -8   1 404.734 26.1973   1
   1   8  -6 397.819 23.8073   1
   8   2   6 58.0379 28.3724   1
  -6   8   2  36.791 16.5684   1
   8  -2   6 73.4398 19.9396   1
  -2   8   6 53.7715  30.022   1
  -8  -2  -6 21.5029 29.4243   1
  -8   2  -6 4.53666 25.0725   1
  -2  -6   8 32.6913 26.7423   1
   2   8  -6 25.5726 36.0702   1
   2  -8  -6 12.8657 20.1866   1
  -2  -8   6 49.1091  24.129   1
   2  -6  -8 41.0663 26.8146   1
  -6  -2  -8 7.42789 16.7539   1
   2   8  -6 34.8158  10.991   1
   6  -2   8 32.7379 25.4282   1
   8  -3   6 198.817 21.0696   1
   3  -8  -6 199.411 24.5679   1
   3  -6  -8 187.888 29.7645   1
  -3  -8   6 202.934 31.9886   1
  -3   6   8 219.352 25.2476   1
   6   8  -3 205.938 34.4665   1
   3   8  -6 196.744 16.7787   1
  -6  -8   3 176.541 22.5932   1
   4  -8  -6 661.046 36.7359   1
   4   8  -6 683.571 47.8031   1
   4  -6  -8  766.70 43.5574   1
  -4  -8   6 723.613 44.0279   1
  -4   6   8 787.392 36.5961   1
   6   8  -4  872.86 43.2928   1
   4   8  -6 846.832 34.9396   1
  -6  -8   4 884.518 36.0792   1
   6  -5  -8 13.2989 35.5359   1
   5  -6  -8 65.3248 35.4353   1
  -5   6   8  23.681 28.8793   1
  -6   5   8 68.8481 35.1899   1
   6   8  -5 64.0072 36.0123   1
   5   8  -6 28.6681 28.6249   1
  -6  -8   5 54.1267 24.1261   1
   6  -6  -8-25.5726 39.1459   1
  -6   6   8  9.6601 35.4637   1
  -8   0  -7 12.4723 31.3015   1
   8   0   7-12.0314 24.7312   1
   7   0   8-15.5299 28.0022   1
   0   7  -8 4.93835 32.5613   1
   0   8  -7 1.83383 29.6012   1
   7  -1   8-5.23351 28.2439   1
  -8   1  -7 1.99101 28.8554   1
   8   1   7-13.0696 25.7978   1
   8  -1   7-9.59951 22.1998   1
  -8  -1  -7 8.64667 31.7139   1
   1  -8  -7  4.4474  22.468   1
  -1   8  -7 26.6555  28.013   1
  -1  -8   7-11.0319 25.6737   1
   1  -7  -8 31.0741 26.3669   1
   1   8  -7-16.9232 31.2329   1
   1   7  -8-24.4318  33.962   1
   8  -2   7 476.392 31.6574   1
   2   8  -7 487.554 43.8302   1
   2  -8  -7 484.882  29.761   1
   2  -7  -8 480.276   30.90   1
  -2  -8   7  445.13 32.0215   1
   7   8  -3 12.7984 34.9722   1
  -7  -8   3-7.07183  19.605   1
  -8  -7   3 13.8537 18.6869   1
  -3   7   8-10.4543 25.7459   1
  -3  -8   7-44.4163 30.6267   1
   3  -7  -8-59.8811 31.8109   1
   7  -3   8 2.81586 26.3951   1
   7   8  -4 152.495 39.3563   1
  -7  -8   4  161.93 20.1414   1
  -8  -7   4 164.367  18.497   1
  -4   7   8 151.746   26.37   1
  -7  -8   5-7.08567 18.3136   1
  -8  -7   5-0.39248 17.1178   1
   5  -7  -8 30.0777 31.7095   1
  -5   7   8-6.42563 26.4534   1
  -6   7   8  352.89 33.9469   1
  -8   0  -8 2977.09 135.793   1
   8   0   8 2751.08 133.781   1
   0   8  -8 2425.05 88.5345   1
   1  -8  -8 1.25625 25.0383   1
  -1   8  -8  -16.49 30.5543   1
   8  -2   8-18.5164  24.845   1
   2  -8  -8-49.8889 26.6703   1
   3  -8  -8-28.2583 30.0489   1
   1  -9   0-35.5822 19.3131   1
  -1   0   9-0.73421 7.86048   1
   0  -1   9 18.4743 17.3528   1
   1   0   9 -23.983  20.286   1
  -1   0  -9-17.4806  69.976   1
   0   1   9 6.72831 10.5864   1
  -1   0   9-12.2448 28.3306   1
   1   0  -9-15.1616 28.9659   1
  -1  -9   0 7.06097 11.7105   1
   0  -9  -1-8.68933 20.9909   1
   2  -9   0 260.808  24.003   1
  -2   0  -9 301.211   20.72   1
  -2   0   9  294.48 20.9731   1
  -2   0   9 230.341 29.9689   1
   1   9   2 473.974 37.8672   1
  -1   9   2 501.834 33.4792   1
   2  -9   1 403.777 26.9172   1
  -1  -9  -2 547.542 34.5078   1
   1  -9  -2 481.398 32.3258   1
   2  -9  -1 465.228 29.7664   1
   1   2   9 520.787 19.7306   1
  -2  -1   9 463.682 17.1013   1
  -2   1  -9 533.153 19.3866   1
  -1  -2  -9 439.506 118.935   1
  -1   2   9 566.108 25.6244   1
  -1   2  -9 390.772  27.663   1
  -2  -1  -9  460.43 36.0179   1
  -1   9  -2 460.537 23.0082   1
  -2  -9   1 488.666 26.0836   1
   1  -2  -9 429.925 34.9638   1
  -1  -9   2 454.227 21.4646   1
  -2   1   9  525.14 32.5067   1
   0   9   3 124.907 24.8617   1
  -9   0  -3 141.703 24.2794   1
   3  -9   0  149.71 18.4644   1
   3   9   0 149.204 20.8078   1
  -3   0  -9 156.775  13.171   1
   0   3   9 158.402 16.0602   1
   0   9  -3  112.21 21.9937   1
   0  -9  -3 132.065 10.6915   1
   3  -9   1 15.5725 17.1085   1
   1   9   3 16.5965  26.836   1
  -1   9   3-4.01046 21.7447   1
  -1  -9  -3-25.5276  27.348   1
  -9   1  -3 -2.5172 21.7731   1
   3   1   9 36.7798 26.7736   1
   3   9  -1-2.55158 19.5189   1
   3   9   1 9.11565  21.228   1
  -1   3  -9  5.6932 9.76987   1
  -3  -1  -9-4.04123 15.5467   1
  -3   1  -9 21.3237 11.7264   1
   1   3   9-2.00231 13.4582   1
  -3   9  -1 0.85194 9.45795   1
  -1   9  -3 1.79051 18.0206   1
   1  -3  -9 17.5441 28.5905   1
  -1  -9   3-5.71809 16.6922   1
   1  -9  -3-19.2986 22.2852   1
  -9   3  -2 635.644 36.7498   1
  -2   9   3 572.828 38.9439   1
   3  -9   2 601.143 35.0263   1
  -3  -9  -2 673.075 42.2667   1
  -9   2  -3 642.157 37.4184   1
   3  -9  -2 678.636 38.0911   1
  -2  -3  -9 473.755 71.0522   1
   3   2   9 706.818 32.0513   1
  -3   2  -9 551.504 22.3177   1
  -2   3  -9 579.237 20.8655   1
   3   9  -2 668.833  27.335   1
   2   9  -3 661.816 29.0381   1
  -3  -2  -9 602.588 30.0713   1
  -3  -9   2 581.137 32.4273   1
   2  -3  -9 537.861 39.2314   1
  -2   9  -3 566.813 26.3261   1
  -2  -9   3 657.118 30.2327   1
  -3   2   9 591.014 36.4673   1
  -2   3   9 576.242 34.7489   1
   2  -9  -3 512.301 39.1218   1
  -9   3  -3 15.1175 19.6115   1
   4  -9   0 36.5635 17.4927   1
   0   9   4  29.794 24.5038   1
  -9   0  -4 83.0251 23.8506   1
  -4   0  -9 86.8517  14.103   1
   4   9   0 68.3421 20.5943   1
   0   9  -4 61.3684 27.7823   1
   0  -9  -4 40.4454 12.0865   1
  -1  -9  -4-46.1488 28.7419   1
   1  -9  -4 5.74548 27.4333   1
  -9   1  -4-42.2947 24.4613   1
  -4   9   1-22.6975 21.5741   1
   1   9   4-49.3344 25.3573   1
   4  -9  -1-25.5987 21.0479   1
  -9  -1  -4-24.4468 27.7747   1
  -4  -1  -9-18.1138 15.0787   1
   1   4   9 0.03112 17.0078   1
  -4   1  -9-0.38815 14.9465   1
  -1   4  -9-2.39218 5.38215   1
   4   9  -1-37.7597 20.5025   1
   1   9  -4-14.7573 25.9769   1
   1  -9  -4-23.5655 14.4975   1
  -1   9  -4-19.4213 22.0638   1
   2  -9  -4 74.5918 25.2583   1
  -4   9   2 172.919 21.4232   1
  -9   2  -4  81.091 25.8273   1
  -2   9   4 99.1949 24.2351   1
  -9  -2  -4 147.818 29.4273   1
   4   2   9 0.05556   31.23   1
  -2  -4  -9 81.3884 111.643   1
  -4  -9   2  155.60 73.0947   1
  -4  -2  -9 97.8988 17.2551   1
   2   9  -4 155.586 19.5692   1
   2   4   9 142.748 18.7385   1
   2   9  -4 159.298 31.3226   1
  -2  -9   4 121.004  22.947   1
   2  -4  -9 108.774 33.6456   1
  -2   9  -4 68.8192 19.5088   1
  -2   4   9 102.074 30.3245   1
  -9   4  -2 124.523 16.2163   1
  -9   3  -4 17.4071 20.1804   1
  -3   9   4-7.56584 23.3375   1
  -4  -9   3-29.6177 94.2698   1
   4   3   9 0.05494 28.9819   1
   3   4   9 0.04225 22.2257   1
   4   9  -3-0.50974 18.4947   1
  -3  -4  -9-0.10005 51.9728   1
  -4  -3  -9-12.9683 25.6456   1
   3   9  -4 25.8355 15.4376   1
  -3  -9   4-50.8275 27.7389   1
   3  -4  -9 -18.526 39.2325   1
   9   0   5 265.999 37.8225   1
   0   9   5 202.215 26.4155   1
  -9   0  -5 232.308 28.2089   1
   0  -9  -5 238.182 34.3089   1
   0  -9  -5 224.839  16.415   1
   9  -1   5-19.6683  34.089   1
   9   1   5-11.5052 40.2184   1
  -5   9   1-49.1922 18.4458   1
  -9   1  -5-14.5486 27.1773   1
   1  -9  -5 -20.806 28.9266   1
   1   5   9  0.0361 18.2606   1
   5   9  -1-25.9411 22.9277   1
  -5  -9   1-47.6945 49.6393   1
  -5  -1  -9 5.05205 16.1634   1
  -9  -1  -5-18.6444 30.2918   1
   1   9  -5-11.8694  32.157   1
  -1  -9   5 14.2375 22.4536   1
  -1   9  -5-22.8146 24.2009   1
   2  -9  -5 563.669 33.4729   1
   9  -2   5 716.536 38.4943   1
  -2   9   5 701.205 34.8851   1
  -9   2  -5 620.455 32.7567   1
   2   9  -5 740.602 27.5279   1
  -5  -9   2 538.375 54.1314   1
   2  -5  -9 592.371 39.0497   1
  -2   9  -5 696.582 29.9223   1
  -2  -9   5 644.252 32.7391   1
  -9   3  -5 88.6284 21.4048   1
  -3   9   5 111.909 28.7861   1
   5   9  -3 104.603 24.4195   1
   3   9  -5 111.136 15.7701   1
  -5  -9   3 111.616 44.3346   1
  -3   5   9 117.192 28.7944   1
  -3  -9   5 106.853 28.0144   1
   3  -5  -9 124.802 36.0574   1
  -5   9   3 117.142  19.984   1
  -5   9   4-43.0769 23.6222   1
  -4   9   5-4.52244 30.5336   1
   4   9  -5-8.19886 18.6337   1
  -4  -9   5-16.5478 33.3989   1
  -4   5   9-37.6152 28.4174   1
   4  -5  -9-54.3652 40.6189   1
   9   0   6  198.29 31.1644   1
  -9   0  -6 140.651 29.9531   1
   0   9  -6 105.308 28.7941   1
   9   1   6 543.389  41.399   1
   9  -1   6 610.315 38.7211   1
  -9  -1  -6 563.228 40.2643   1
  -9   1  -6 500.611 38.6374   1
   1   9  -6 456.436 39.8297   1
  -1   9  -6  482.63 31.0157   1
  -1  -9   6 466.414 29.0374   1
   9  -2   6-23.5081 28.9835   1
  -9   2  -6 31.2162 26.9925   1
   2   9  -6 10.7035 14.9415   1
  -6  -2  -9 14.3186 18.3622   1
   2  -6  -9 3.04676 27.8973   1
   2   9  -6 9.40019 32.9945   1
  -2   9  -6-5.34266  24.504   1
  -2  -9   6 15.7103 26.1646   1
  -3   9   6 1012.06 59.9553   1
   6   9  -3 901.685 44.9179   1
   3   9  -6 943.778 31.9855   1
   3   9  -6 766.339 43.9757   1
   3  -6  -9 744.377  43.742   1
  -3  -9   6 793.919 40.2878   1
  -3   6   9 837.787 38.7953   1
   6   9  -4 358.413 35.5456   1
  -6  -9   4 362.651 36.4109   1
  -4  -9   6 294.814 36.3102   1
  -4   6   9 312.372 31.5189   1
   6   9  -5 180.077 35.8003   1
   9   0   7  127.41 26.5398   1
  -9   0  -7  138.02 34.8449   1
   0   9  -7 140.151 34.9749   1
   7  -1   9 -0.5973 32.6526   1
  -9   1  -7-0.12799 29.7371   1
  -1   9  -7 -5.1405 28.9081   1
   1  -7  -9 2.19482 28.0129   1
   1   9  -7 37.2253 35.2184   1
  -1  -9   7 16.4178 25.8181   1
  -9   2  -7 300.244 30.3606   1
   2   9  -7 280.114 40.3227   1
  -2  -9   7 280.749 28.9761   1
  -3  -9   7 18.5982 30.9153   1
   3  -7  -9 21.2118 31.6373   1
  -7  -9   4-0.10054 27.6923   1
   4  -7  -9 -41.124 36.3303   1
  -4   7   9-27.0743 27.7242   1
   7   9  -5-15.9583 41.8255   1
  -5   7   9 10.4543 27.7963   1
   9  -1   8 72.8425  26.723   1
  -9   1  -8 68.9174 30.0649   1
   8  -2   9 373.812 34.5603   1
   0   0  10 2885.66 89.3847   1
   1 -10   0  149.61 24.2087   1
   1   0  10 115.031 22.1098   1
   0   1  10 119.797 12.4046   1
   0 -10  -1 121.793  24.307   1
  -1 -10  -1 1035.48 52.4031   1
   1 -10  -1 882.444 51.5709   1
   1   1  10 945.785 34.9721   1
  -1   1  10 965.472 31.1968   1
   0  10   2 89.1403 34.3032   1
   2 -10   0 63.5416 22.9826   1
   0 -10  -2 86.3529 28.9133   1
  -1 -10  -2 53.9706 27.3484   1
  -1  10   2 81.5461 32.0134   1
   2 -10   1 41.6548 20.8917   1
   1 -10  -2 31.5148 26.0397   1
   2   1  10 34.1099 26.5011   1
  -1   2  10 65.6934 15.3102   1
   1   2  10 44.0236 15.8889   1
  -2  -1 -10 38.1627  44.091   1
  -2   1 -10   43.45 19.5237   1
  -2 -10   1  38.265 18.5263   1
  -2 -10  -2 339.723 33.0506   1
  -2  -2 -10 441.792 67.7057   1
   2   2  10 447.779 27.9093   1
   2 -10  -2  392.94 29.1327   1
  -2 -10   2  380.96 25.5651   1
   0  10   3  305.89 32.0954   1
   0 -10  -3 323.895 32.8076   1
  -3   0 -10  345.08 19.2603   1
  -1  10   3 659.678 40.9579   1
 -10   1  -3 643.068 37.0776   1
   1 -10  -3 573.084 38.5887   1
   3 -10  -1 553.316 35.1763   1
  -3   1 -10 529.468 21.2602   1
  -3  -1 -10 589.741 28.7474   1
  -1 -10   3 481.013 23.9196   1
   2 -10  -3 24.9872 28.3151   1
  -3  10   2 25.3996 26.4805   1
  -2  10   3 29.4527 23.9634   1
   3 -10  -2 25.4991 23.3091   1
   3   2  10 0.05052 28.5394   1
  -2  -3 -10 0.18735 106.201   1
  -3  -2 -10-0.05865 32.5057   1
   2   3  10 0.03641 20.2001   1
  -3 -10   2 25.3993 29.5435   1
  -2 -10   3 16.7355 23.4789   1
 -10   2  -3 32.1406 22.1431   1
  -3  10   3 523.408 34.8742   1
   3  10  -3 579.918 27.7765   1
  -3 -10   3 482.615 32.5739   1
   0  10   4  343.79 31.2314   1
   0 -10  -4  335.40 33.2492   1
  -4   0 -10  329.83 16.8724   1
  -1  10   4 546.859 38.7277   1
 -10   1  -4 619.887 38.7507   1
  -4   1 -10 579.358 22.2804   1
  -4  -1 -10 599.875 24.8779   1
  -1 -10   4 644.469 30.1874   1
   1 -10  -4 601.072 41.6043   1
  -4  10   2 54.2266 22.8118   1
 -10   2  -4 21.5882 24.5748   1
  -2  10   4-18.3031 25.4565   1
   4   2  10 0.05913  33.478   1
   2   4  10-0.03368 17.6777   1
  -4  -2 -10 0.03962 20.5329   1
  -2 -10   4  39.348 23.1903   1
  -4  10   3 213.877 24.0278   1
  -3  10   4 200.054 26.4438   1
  -4  -3 -10 46.3281 31.5857   1
   4   3  10 12.4494 34.2029   1
   3   4  10 14.4263 25.3422   1
  -4 -10   3 42.1316 134.201   1
   4  10  -3 265.572 22.7424   1
  -3  -4 -10  24.679  66.042   1
   3  10  -4  207.72 16.9577   1
  -3 -10   4 145.768 28.9253   1
  -4 -10   3 218.529 32.4658   1
  -4  10   4 107.813 23.5243   1
   4  10  -4 126.082 20.1463   1
  -4 -10   4 103.171 31.6673   1
 -10   0  -5 60.2565 34.1889   1
  -5   0 -10 53.6222 15.1518   1
 -10  -1  -5 718.157 45.0002   1
 -10   1  -5 671.411 42.6216   1
  -5  -1 -10 685.187 26.0026   1
  -2  10   5 35.2978 27.9596   1
   2 -10  -5 32.0268 27.7747   1
  -5  -2 -10 4.16201 17.7544   1
   2  10  -5 7.44051 19.9419   1
  -2 -10   5-11.3784 24.7351   1
  -3  10   5 134.265 27.6065   1
  -5  -3 -10 19.3106 21.7853   1
  -5 -10   3 -11.959 84.5238   1
   3  10  -5 83.2031 17.7236   1
  -3 -10   5 149.075 31.1923   1
  -4  10   5 409.181 34.1797   1
   4  10  -5 409.491 24.5692   1
   5  10  -5 799.017  39.313   1
  -5 -10   5 681.983 45.8119   1
  10   0   6  97.659 40.1909   1
 -10   0  -6 153.094 32.1862   1
 -10   1  -6-44.8119 29.6379   1
  -6  -1 -10 0.06857 17.3072   1
  -1 -10   6-14.9594 23.6521   1
   2  10  -6  595.36  39.959   1
  -2 -10   6 725.028 35.1591   1
   3  10  -6 89.6989 39.0744   1
  -3 -10   6 24.8939 29.0382   1
  -4 -10   6 43.0589 32.9225   1
 -10   0  -7 114.298 34.8157   1
 -10   1  -7 572.316  44.486   1
  -1 -10   7 602.666 36.0504   1
   2  10  -7 11.7972 35.6803   1
  -2 -10   7 10.8586 29.3558   1
   1 -11   0 1.60703 24.5179   1
   0 -11  -1 7.99248 25.9685   1
   0  11   2 295.267 41.6205   1
   0 -11  -2 442.004 36.5849   1
  -1  11   2 254.223  39.329   1
   2 -11  -1 296.077 30.0475   1
   1 -11  -2 220.888 32.0329   1
   0  11   3 331.901 41.8076   1
   0 -11  -3 337.832 35.0122   1
  -1  11   3 45.9497  33.819   1
  -3  -1 -11 49.4242 32.1562   1
   1   3  11 58.6074 15.5251   1
  -2  11   3 1096.63 64.0579   1
   2 -11  -3 1235.73 63.6096   1
   3   2  11 1635.81 55.3347   1
  -3  -2 -11 1474.18 66.3499   1
 -11   0  -4 31.8135 31.5292   1
   0   4  11 34.4279 16.7113   1
 -11   1  -4-4.05313 27.1631   1
  -4  -1 -11-20.7573 20.9848   1
   1   4  11  2.4641  17.972   1
  -2  11   4 182.661 28.3197   1
   2 -11  -4  226.15 32.1043   1
   4   2  11 281.649  40.168   1
  -4  -2 -11 269.469 29.6571   1
  -3  11   4 25.8831 26.7223   1
   3  11  -4 44.0767 20.9824   1
   4   3  11 49.1542 38.0287   1
  -4  -3 -11 29.0757 39.5452   1
  -3  -4 -11 0.16798 89.2957   1
 -11   0  -5  25.684 30.4341   1
  -5  -1 -11 14.3159 16.9942   1
   0 -12  -1 173.602 32.0875   1
   0   0   0    0.00    0.00   1
;
_shelx_hkl_checksum              45351
loop_
_axis.id
_axis.system
_axis.type
_axis.equipment
_axis.parity
_axis.depends_on
_axis.zero
_axis.vector[1]
_axis.vector[2]
_axis.vector[3]
source abstract . source . . . 0.99998803 0.00000000 -0.00489353
omega abstract rotation goniometer -1 . 0.10914000 0.00000000 0.00000000
1.00000000
kappa abstract rotation goniometer -1 omega 0.00000000 -0.76604444 0.00000000
0.64278761
phi abstract rotation goniometer -1 kappa . 0.00000000 0.00000000 1.00000000
theta abstract rotation goniometer -1 . 0.46372000 0.00000000 0.00000000
1.00000000
matrixX abstract general general . phi . 1.00000000 0.00000000 0.00000000
matrixY abstract general general . phi . 0.00000000 1.00000000 0.00000000
matrixZ abstract general general . phi . 0.00000000 0.00000000 1.00000000
dacX abstract translation general . phi . 0.00000000 1.00000000 0.00000000
dacY abstract translation general . phi . -1.00000000 0.00000000 0.00000000
dacZ abstract translation general . phi . 0.00000000 0.00000000 1.00000000

_olex2_submission_special_instructions 'No special instructions were received'
_oxdiff_exptl_absorpt_empirical_details
;
Empirical correction (ABSPACK) includes:
- Absorption correction using spherical harmonics
- Frame scaling
- Detector area scaling
;
_oxdiff_exptl_absorpt_empirical_full_max 1.516
_oxdiff_exptl_absorpt_empirical_full_min 0.714
_exptl_crystal_recrystallization_method 'laser heating in a diamond anvil cell'
