
#(C) 2025 by FIZ Karlsruhe - Leibniz Institute for Information Infrastructure.  All rights reserved.
data_417502-ICSD
_database_code_ICSD 417502
_audit_creation_date 2009-02-01
_chemical_name_common 'Rubidium mercury germanium (8/3.03/42.97)'
_chemical_formula_structural 'Rb8 Hg3.03 Ge42.97'
_chemical_formula_sum 'Ge42.97 Hg3.03 Rb8'
_chemical_name_structure_type K8Si46
_exptl_crystal_density_diffrn 5.69
_diffrn_ambient_temperature 293.
_citation_title

;
A4 Ge9 (A = K, Rb) as precursors for Hg-substituted clathrate-I synthesis:
crystal structure of A8 Hg3 Ge43
;
loop_
_citation_id
_citation_journal_full
_citation_year
_citation_journal_volume
_citation_page_first
_citation_page_last
_citation_journal_id_ASTM
primary 'European Journal of Inorganic Chemistry' 2008 2008 4507 4510 EJICFO
loop_
_citation_author_citation_id
_citation_author_name
primary 'Kaltzoglou, A.'
primary 'Ponou, S.'
primary 'Faessler, T.F.'
_cell_length_a 10.8750(13)
_cell_length_b 10.8750(13)
_cell_length_c 10.8750(13)
_cell_angle_alpha 90.
_cell_angle_beta 90.
_cell_angle_gamma 90.
_cell_volume 1286.14
_cell_formula_units_Z 1
_space_group_name_H-M_alt 'P m -3 n'
_space_group_IT_number 223
loop_
_space_group_symop_id
_space_group_symop_operation_xyz
1 'z+1/2, -y+1/2, x+1/2'
2 'y+1/2, -x+1/2, z+1/2'
3 'x+1/2, -z+1/2, y+1/2'
4 '-z+1/2, y+1/2, -x+1/2'
5 '-y+1/2, x+1/2, -z+1/2'
6 '-x+1/2, z+1/2, -y+1/2'
7 'z+1/2, y+1/2, -x+1/2'
8 'y+1/2, x+1/2, -z+1/2'
9 'x+1/2, z+1/2, -y+1/2'
10 '-z+1/2, -y+1/2, x+1/2'
11 '-y+1/2, -x+1/2, z+1/2'
12 '-x+1/2, -z+1/2, y+1/2'
13 '-z+1/2, y+1/2, x+1/2'
14 '-y+1/2, x+1/2, z+1/2'
15 '-x+1/2, z+1/2, y+1/2'
16 'z+1/2, -y+1/2, -x+1/2'
17 'y+1/2, -x+1/2, -z+1/2'
18 'x+1/2, -z+1/2, -y+1/2'
19 '-z+1/2, -y+1/2, -x+1/2'
20 '-y+1/2, -x+1/2, -z+1/2'
21 '-x+1/2, -z+1/2, -y+1/2'
22 'z+1/2, y+1/2, x+1/2'
23 'y+1/2, x+1/2, z+1/2'
24 'x+1/2, z+1/2, y+1/2'
25 'z, x, -y'
26 'y, z, -x'
27 'x, y, -z'
28 '-z, -x, y'
29 '-y, -z, x'
30 '-x, -y, z'
31 'z, -x, y'
32 'y, -z, x'
33 'x, -y, z'
34 '-z, x, -y'
35 '-y, z, -x'
36 '-x, y, -z'
37 '-z, x, y'
38 '-y, z, x'
39 '-x, y, z'
40 'z, -x, -y'
41 'y, -z, -x'
42 'x, -y, -z'
43 '-z, -x, -y'
44 '-y, -z, -x'
45 '-x, -y, -z'
46 'z, x, y'
47 'y, z, x'
48 'x, y, z'
loop_
_atom_type_symbol
_atom_type_oxidation_number
Rb0+ 0
Ge0+ 0
Hg0+ 0
Ge0+ 0
loop_
_atom_site_label
_atom_site_type_symbol
_atom_site_symmetry_multiplicity
_atom_site_Wyckoff_symbol
_atom_site_fract_x
_atom_site_fract_y
_atom_site_fract_z
_atom_site_U_iso_or_equiv
_atom_site_occupancy
Rb1 Rb0+ 2 a 0. 0. 0. 0.0184(12) 1
Rb2 Rb0+ 6 d 0.25 0.5 0. 0.0265(8) 1
Ge1 Ge0+ 6 c 0.5 0.25 0. 0.0149(6) 0.495(11)
Hg1 Hg0+ 6 c 0.5 0.25 0. 0.0149(6) 0.505(11)
Ge2 Ge0+ 16 i 0.18362(9) 0.18362(9) 0.18362(9) 0.0101(5) 1
Ge3 Ge0+ 24 k 0.30498(14) 0.11749(14) 0. 0.0115(5) 1
loop_
_atom_site_aniso_label
_atom_site_aniso_type_symbol
_atom_site_aniso_U_11
_atom_site_aniso_U_22
_atom_site_aniso_U_33
_atom_site_aniso_U_12
_atom_site_aniso_U_13
_atom_site_aniso_U_23
Rb1 Rb0+ 0.0184(12) 0.0184(12) 0.0184(12) 0. 0. 0.
Rb2 Rb0+ 0.0190(17) 0.0302(12) 0.0302(12) 0. 0. 0.
Ge1 Ge0+ 0.0113(7) 0.0220(11) 0.0113(7) 0. 0. 0.
Hg1 Hg0+ 0.0113(7) 0.0220(11) 0.0113(7) 0. 0. 0.
Ge2 Ge0+ 0.0101(5) 0.0101(5) 0.0101(5) -0.0003(4) -0.0003(4) -0.0003(4)
Ge3 Ge0+ 0.0133(8) 0.0115(8) 0.0096(8) 0.0003(6) 0. 0.
#End of TTdata_417502-ICSD