
#(C) 2025 by FIZ Karlsruhe - Leibniz Institute for Information Infrastructure.  All rights reserved.
data_425873-ICSD
_database_code_ICSD 425873
_audit_creation_date 2014-02-01
_chemical_name_common 'Potassium gallium tin (8/8.5/37.5)'
_chemical_formula_structural 'K8 (Ga8.5 Sn37.5)'
_chemical_formula_sum 'Ga8.5 K8 Sn37.5'
_chemical_name_structure_type K8Si46
_exptl_crystal_density_diffrn 5.23
_diffrn_ambient_temperature 296.
_citation_title

;
Structural characterization and low-temperature physical properties of p-type
single-crystal K8 Ga8.5 Sn37.5 grown by self-flux method
;
loop_
_citation_id
_citation_journal_full
_citation_year
_citation_journal_volume
_citation_page_first
_citation_page_last
_citation_journal_id_ASTM
primary 'Journal of Solid State Chemistry' 2013 204 166 169 JSSCBI
loop_
_citation_author_citation_id
_citation_author_name
primary 'Stefanoski, Stevce'
primary 'Dong, Yongkwan'
primary 'Nolas, George S.'
_cell_length_a 11.9345(16)
_cell_length_b 11.9345(16)
_cell_length_c 11.9345(16)
_cell_angle_alpha 90.
_cell_angle_beta 90.
_cell_angle_gamma 90.
_cell_volume 1699.86
_cell_formula_units_Z 1
_space_group_name_H-M_alt 'P m -3 n'
_space_group_IT_number 223
loop_
_space_group_symop_id
_space_group_symop_operation_xyz
1 'z+1/2, -y+1/2, x+1/2'
2 'y+1/2, -x+1/2, z+1/2'
3 'x+1/2, -z+1/2, y+1/2'
4 '-z+1/2, y+1/2, -x+1/2'
5 '-y+1/2, x+1/2, -z+1/2'
6 '-x+1/2, z+1/2, -y+1/2'
7 'z+1/2, y+1/2, -x+1/2'
8 'y+1/2, x+1/2, -z+1/2'
9 'x+1/2, z+1/2, -y+1/2'
10 '-z+1/2, -y+1/2, x+1/2'
11 '-y+1/2, -x+1/2, z+1/2'
12 '-x+1/2, -z+1/2, y+1/2'
13 '-z+1/2, y+1/2, x+1/2'
14 '-y+1/2, x+1/2, z+1/2'
15 '-x+1/2, z+1/2, y+1/2'
16 'z+1/2, -y+1/2, -x+1/2'
17 'y+1/2, -x+1/2, -z+1/2'
18 'x+1/2, -z+1/2, -y+1/2'
19 '-z+1/2, -y+1/2, -x+1/2'
20 '-y+1/2, -x+1/2, -z+1/2'
21 '-x+1/2, -z+1/2, -y+1/2'
22 'z+1/2, y+1/2, x+1/2'
23 'y+1/2, x+1/2, z+1/2'
24 'x+1/2, z+1/2, y+1/2'
25 'z, x, -y'
26 'y, z, -x'
27 'x, y, -z'
28 '-z, -x, y'
29 '-y, -z, x'
30 '-x, -y, z'
31 'z, -x, y'
32 'y, -z, x'
33 'x, -y, z'
34 '-z, x, -y'
35 '-y, z, -x'
36 '-x, y, -z'
37 '-z, x, y'
38 '-y, z, x'
39 '-x, y, z'
40 'z, -x, -y'
41 'y, -z, -x'
42 'x, -y, -z'
43 '-z, -x, -y'
44 '-y, -z, -x'
45 '-x, -y, -z'
46 'z, x, y'
47 'y, z, x'
48 'x, y, z'
loop_
_atom_type_symbol
_atom_type_oxidation_number
K0+ 0
Sn0+ 0
Ga0+ 0
Sn0+ 0
Ga0+ 0
Sn0+ 0
Ga0+ 0
loop_
_atom_site_label
_atom_site_type_symbol
_atom_site_symmetry_multiplicity
_atom_site_Wyckoff_symbol
_atom_site_fract_x
_atom_site_fract_y
_atom_site_fract_z
_atom_site_U_iso_or_equiv
_atom_site_occupancy
K1 K0+ 2 a 0. 0. 0. 0.0138(4) 1
K2 K0+ 6 d 0.5 0. 0.25 0.0443(5) 1
Sn1 Sn0+ 24 k 0.312453(18) 0.117620(18) 0. 0.00996(7) 0.82
Ga1 Ga0+ 24 k 0.312453(18) 0.117620(18) 0. 0.00996(7) 0.18
Sn2 Sn0+ 16 i 0.183155(12) 0.183155(12) 0.183155(12) 0.00991(8) 0.93
Ga2 Ga0+ 16 i 0.183155(12) 0.183155(12) 0.183155(12) 0.00991(8) 0.07
Sn3 Sn0+ 6 c 0.5 0.25 0. 0.01063(11) 0.49
Ga3 Ga0+ 6 c 0.5 0.25 0. 0.01063(11) 0.51
loop_
_atom_site_aniso_label
_atom_site_aniso_type_symbol
_atom_site_aniso_U_11
_atom_site_aniso_U_22
_atom_site_aniso_U_33
_atom_site_aniso_U_12
_atom_site_aniso_U_13
_atom_site_aniso_U_23
K1 K0+ 0.0138(4) 0.0138(4) 0.0138(4) 0. 0. 0.
K2 K0+ 0.0557(9) 0.0557(9) 0.0214(9) 0. 0. 0.
Sn1 Sn0+ 0.01045(11) 0.01012(11) 0.00932(10) 0.00057(7) 0. 0.
Ga1 Ga0+ 0.01045(11) 0.01012(11) 0.00932(10) 0.00057(7) 0. 0.
Sn2 Sn0+ 0.00991(8) 0.00991(8) 0.00991(8) -0.00045(5) -0.00045(5) -0.00045(5)
Ga2 Ga0+ 0.00991(8) 0.00991(8) 0.00991(8) -0.00045(5) -0.00045(5) -0.00045(5)
Sn3 Sn0+ 0.01067(14) 0.0105(2) 0.01067(14) 0. 0. 0.
Ga3 Ga0+ 0.01067(14) 0.0105(2) 0.01067(14) 0. 0. 0.
#End of TTdata_425873-ICSD