
#(C) 2025 by FIZ Karlsruhe - Leibniz Institute for Information Infrastructure.  All rights reserved.
data_91103-ICSD
_database_code_ICSD 91103
_audit_creation_date 2002-10-01
_audit_update_record 2007-04-01
_chemical_name_common 'Barium gallium antimony germanide (8/17.13/2.78/25.6)'
_chemical_formula_structural 'Ba8 Ga17.134 Sb2.78 Ge25.595'
_chemical_formula_sum 'Ba8 Ga17.134 Ge25.595 Sb2.78'
_chemical_name_structure_type K8Si46
_exptl_crystal_density_diffrn 5.76
_citation_title

;
Gallium antimonide-doped germanium clathrate - a p-type thermoelectric cage
structure
;
loop_
_citation_id
_citation_journal_full
_citation_year
_citation_journal_volume
_citation_page_first
_citation_page_last
_citation_journal_id_ASTM
primary 'Journal of Solid State Chemistry' 2000 151 61 64 JSSCBI
loop_
_citation_author_citation_id
_citation_author_name
primary 'Latturner, S.'
primary 'Bu Xianhui'
primary 'Blake, N.'
primary 'Metiu, H.'
primary 'Stucky, G.'
_cell_length_a 10.9008(6)
_cell_length_b 10.9008(6)
_cell_length_c 10.9008(6)
_cell_angle_alpha 90.
_cell_angle_beta 90.
_cell_angle_gamma 90.
_cell_volume 1295.31
_cell_formula_units_Z 1
_space_group_name_H-M_alt 'P m -3 n'
_space_group_IT_number 223
loop_
_space_group_symop_id
_space_group_symop_operation_xyz
1 'z+1/2, -y+1/2, x+1/2'
2 'y+1/2, -x+1/2, z+1/2'
3 'x+1/2, -z+1/2, y+1/2'
4 '-z+1/2, y+1/2, -x+1/2'
5 '-y+1/2, x+1/2, -z+1/2'
6 '-x+1/2, z+1/2, -y+1/2'
7 'z+1/2, y+1/2, -x+1/2'
8 'y+1/2, x+1/2, -z+1/2'
9 'x+1/2, z+1/2, -y+1/2'
10 '-z+1/2, -y+1/2, x+1/2'
11 '-y+1/2, -x+1/2, z+1/2'
12 '-x+1/2, -z+1/2, y+1/2'
13 '-z+1/2, y+1/2, x+1/2'
14 '-y+1/2, x+1/2, z+1/2'
15 '-x+1/2, z+1/2, y+1/2'
16 'z+1/2, -y+1/2, -x+1/2'
17 'y+1/2, -x+1/2, -z+1/2'
18 'x+1/2, -z+1/2, -y+1/2'
19 '-z+1/2, -y+1/2, -x+1/2'
20 '-y+1/2, -x+1/2, -z+1/2'
21 '-x+1/2, -z+1/2, -y+1/2'
22 'z+1/2, y+1/2, x+1/2'
23 'y+1/2, x+1/2, z+1/2'
24 'x+1/2, z+1/2, y+1/2'
25 'z, x, -y'
26 'y, z, -x'
27 'x, y, -z'
28 '-z, -x, y'
29 '-y, -z, x'
30 '-x, -y, z'
31 'z, -x, y'
32 'y, -z, x'
33 'x, -y, z'
34 '-z, x, -y'
35 '-y, z, -x'
36 '-x, y, -z'
37 '-z, x, y'
38 '-y, z, x'
39 '-x, y, z'
40 'z, -x, -y'
41 'y, -z, -x'
42 'x, -y, -z'
43 '-z, -x, -y'
44 '-y, -z, -x'
45 '-x, -y, -z'
46 'z, x, y'
47 'y, z, x'
48 'x, y, z'
loop_
_atom_type_symbol
_atom_type_oxidation_number
Ba0+ 0
Ge0+ 0
Ga0+ 0
Ge0+ 0
Ga0+ 0
Sb0+ 0
Ge0+ 0
Ga0+ 0
Sb0+ 0
loop_
_atom_site_label
_atom_site_type_symbol
_atom_site_symmetry_multiplicity
_atom_site_Wyckoff_symbol
_atom_site_fract_x
_atom_site_fract_y
_atom_site_fract_z
_atom_site_U_iso_or_equiv
_atom_site_occupancy
Ba1 Ba0+ 2 a 0 0 0 0.011 1.
Ba2 Ba0+ 6 d 0 0.25 0.5 0.053 1.
Ge1 Ge0+ 6 c 0 0.5 0.25 0.014 0.599
Ga1 Ga0+ 6 c 0 0.5 0.25 0.014 0.401
Ge2 Ge0+ 24 k 0 0.3084(3) 0.1183(2) 0.011 0.542
Ga2 Ga0+ 24 k 0 0.3084(3) 0.1183(2) 0.011 0.3628
Sb1 Sb0+ 24 k 0 0.3084(3) 0.1183(2) 0.011 0.0878
Ge3 Ge0+ 16 i 0.1848(2) 0.1848 0.1848 0.011 0.5621
Ga3 Ga0+ 16 i 0.1848(2) 0.1848 0.1848 0.011 0.3763
Sb2 Sb0+ 16 i 0.1848(2) 0.1848 0.1848 0.011 0.0419
loop_
_atom_site_aniso_label
_atom_site_aniso_type_symbol
_atom_site_aniso_U_11
_atom_site_aniso_U_22
_atom_site_aniso_U_33
_atom_site_aniso_U_12
_atom_site_aniso_U_13
_atom_site_aniso_U_23
Ba1 Ba0+ 0.01081 0.01081 0.01081 0 0 0
Ba2 Ba0+ 0.07002 0.01864 0.07002 0 0 0
Ge1 Ge0+ 0.01239 0.01239 0.01654 0 0 0
Ga1 Ga0+ 0.01239 0.01239 0.01654 0 0 0
Ge2 Ge0+ 0.01109 0.01049 0.0124 -0.0013 0 0
Ga2 Ga0+ 0.01109 0.01049 0.0124 -0.0013 0 0
Sb1 Sb0+ 0.01109 0.01049 0.0124 -0.0013 0 0
Ge3 Ge0+ 0.0109 0.0109 0.0109 -0.00106 -0.00106 -0.00106
Ga3 Ga0+ 0.0109 0.0109 0.0109 -0.00106 -0.00106 -0.00106
Sb2 Sb0+ 0.0109 0.0109 0.0109 -0.00106 -0.00106 -0.00106
#End of TTdata_91103-ICSD