
#(C) 2025 by FIZ Karlsruhe - Leibniz Institute for Information Infrastructure.  All rights reserved.
data_52633-ICSD
_database_code_ICSD 52633
_audit_creation_date 2003-04-01
_audit_update_record 2019-08-01
_chemical_name_common 'Barium gallium germanium (4/8.05/14.95)'
_chemical_formula_structural 'Ba4 (Ga8.05 Ge14.95)'
_chemical_formula_sum 'Ba4 Ga8.05 Ge14.95'
_chemical_name_structure_type K8Si46
_exptl_crystal_density_diffrn 5.84
_citation_title

;
Die Verbindungen AII8BIII16BIV30 (AII ident to Sr, Ba; BIII ident to Al, Ga;
BIV ident to Si, Ge, Sn) und ihre Kaefigstrukturen
;
loop_
_citation_id
_citation_journal_full
_citation_year
_citation_journal_volume
_citation_page_first
_citation_page_last
_citation_journal_id_ASTM
primary 'Journal of the Less-Common Metals' 1986 118 43 55 JCOMAH
loop_
_citation_author_citation_id
_citation_author_name
primary 'Eisenmann, Brigitte'
primary 'Schaefer, Herbert'
primary 'Zagler, Roland'
_cell_length_a 10.7668(8)
_cell_length_b 10.7668
_cell_length_c 10.7668
_cell_angle_alpha 90.
_cell_angle_beta 90.
_cell_angle_gamma 90.
_cell_volume 1248.13
_cell_formula_units_Z 2
_space_group_name_H-M_alt 'P m -3 n'
_space_group_IT_number 223
loop_
_space_group_symop_id
_space_group_symop_operation_xyz
1 'z+1/2, -y+1/2, x+1/2'
2 'y+1/2, -x+1/2, z+1/2'
3 'x+1/2, -z+1/2, y+1/2'
4 '-z+1/2, y+1/2, -x+1/2'
5 '-y+1/2, x+1/2, -z+1/2'
6 '-x+1/2, z+1/2, -y+1/2'
7 'z+1/2, y+1/2, -x+1/2'
8 'y+1/2, x+1/2, -z+1/2'
9 'x+1/2, z+1/2, -y+1/2'
10 '-z+1/2, -y+1/2, x+1/2'
11 '-y+1/2, -x+1/2, z+1/2'
12 '-x+1/2, -z+1/2, y+1/2'
13 '-z+1/2, y+1/2, x+1/2'
14 '-y+1/2, x+1/2, z+1/2'
15 '-x+1/2, z+1/2, y+1/2'
16 'z+1/2, -y+1/2, -x+1/2'
17 'y+1/2, -x+1/2, -z+1/2'
18 'x+1/2, -z+1/2, -y+1/2'
19 '-z+1/2, -y+1/2, -x+1/2'
20 '-y+1/2, -x+1/2, -z+1/2'
21 '-x+1/2, -z+1/2, -y+1/2'
22 'z+1/2, y+1/2, x+1/2'
23 'y+1/2, x+1/2, z+1/2'
24 'x+1/2, z+1/2, y+1/2'
25 'z, x, -y'
26 'y, z, -x'
27 'x, y, -z'
28 '-z, -x, y'
29 '-y, -z, x'
30 '-x, -y, z'
31 'z, -x, y'
32 'y, -z, x'
33 'x, -y, z'
34 '-z, x, -y'
35 '-y, z, -x'
36 '-x, y, -z'
37 '-z, x, y'
38 '-y, z, x'
39 '-x, y, z'
40 'z, -x, -y'
41 'y, -z, -x'
42 'x, -y, -z'
43 '-z, -x, -y'
44 '-y, -z, -x'
45 '-x, -y, -z'
46 'z, x, y'
47 'y, z, x'
48 'x, y, z'
loop_
_atom_type_symbol
_atom_type_oxidation_number
Ga0+ 0
Ge0+ 0
Ga0+ 0
Ge0+ 0
Ga0+ 0
Ge0+ 0
Ba0+ 0
loop_
_atom_site_label
_atom_site_type_symbol
_atom_site_symmetry_multiplicity
_atom_site_Wyckoff_symbol
_atom_site_fract_x
_atom_site_fract_y
_atom_site_fract_z
_atom_site_U_iso_or_equiv
_atom_site_occupancy
Ga1 Ga0+ 6 c 0.25 0 0.5 . 0.35
Ge1 Ge0+ 6 c 0.25 0 0.5 . 0.65
Ga2 Ga0+ 16 i 0.1842(1) 0.1842 0.1842 . 0.35
Ge2 Ge0+ 16 i 0.1842(1) 0.1842 0.1842 . 0.65
Ga3 Ga0+ 24 k 0 0.3082(2) 0.1181(2) . 0.35
Ge3 Ge0+ 24 k 0 0.3082(2) 0.1181(2) . 0.65
Ba1 Ba0+ 2 a 0 0 0 0.0096(9) 1.
Ba2 Ba0+ 6 d 0.25 0.5 0 . 1.
loop_
_atom_site_aniso_label
_atom_site_aniso_type_symbol
_atom_site_aniso_U_11
_atom_site_aniso_U_22
_atom_site_aniso_U_33
_atom_site_aniso_U_12
_atom_site_aniso_U_13
_atom_site_aniso_U_23
Ga1 Ga0+ 0.0054(19) 0.0093(13) 0.0093 0 0 0
Ge1 Ge0+ 0.0054(19) 0.0093(13) 0.0093 0 0 0
Ga2 Ga0+ 0.0079(6) 0.0079 0.0079 -0.0005(5) -0.0005 -0.0005
Ge2 Ge0+ 0.0079(6) 0.0079 0.0079 -0.0005(5) -0.0005 -0.0005
Ga3 Ga0+ 0.0090(10) 0.0065(10) 0.0064(10) 0 0 -0.0013(8)
Ge3 Ge0+ 0.0090(10) 0.0065(10) 0.0064(10) 0 0 -0.0013(8)
Ba2 Ba0+ 0.0125(16) 0.0532(20) 0.0532 0 0 0
#End of TTdata_52633-ICSD