
#(C) 2025 by FIZ Karlsruhe - Leibniz Institute for Information Infrastructure.  All rights reserved.
data_423131-ICSD
_database_code_ICSD 423131
_audit_creation_date 2012-02-01
_chemical_name_common 'Cesium germanide (8/44.4)'
_chemical_formula_structural 'Cs8 Ge44.4'
_chemical_formula_sum 'Cs8 Ge44.4'
_chemical_name_structure_type K8Si46
_exptl_crystal_density_diffrn 5.61
_diffrn_ambient_temperature 295.
_citation_title
'Preparation and crystal structure of the clathrate-I Cs(8-x) Ge(44+y[](2-y))'
loop_
_citation_id
_citation_journal_full
_citation_year
_citation_journal_volume
_citation_page_first
_citation_page_last
_citation_journal_id_ASTM
primary 'Zeitschrift fuer Anorganische und Allgemeine Chemie (1950) (DE)' 2011
637 1281 1286 ZAACAB
loop_
_citation_author_citation_id
_citation_author_name
primary 'Veremchuk, I.'
primary 'Wosylus, A.'
primary 'Boehme, B.'
primary 'Baitinger, M.'
primary 'Borrmann, H.'
primary "Prots', Yu. (Prots, Yu.)"
primary 'Burkhardt, U.'
primary 'Schwarz, U.'
primary "Grin', Yu. (Hrin', Yu."
primary ' Grin, Yu.'
primary ' Hrin, Yu.)'
_cell_length_a 10.8238(2)
_cell_length_b 10.8238(2)
_cell_length_c 10.8238(2)
_cell_angle_alpha 90
_cell_angle_beta 90
_cell_angle_gamma 90
_cell_volume 1268.06
_cell_formula_units_Z 1
_space_group_name_H-M_alt 'P m -3 n'
_space_group_IT_number 223
loop_
_space_group_symop_id
_space_group_symop_operation_xyz
1 'z+1/2, -y+1/2, x+1/2'
2 'y+1/2, -x+1/2, z+1/2'
3 'x+1/2, -z+1/2, y+1/2'
4 '-z+1/2, y+1/2, -x+1/2'
5 '-y+1/2, x+1/2, -z+1/2'
6 '-x+1/2, z+1/2, -y+1/2'
7 'z+1/2, y+1/2, -x+1/2'
8 'y+1/2, x+1/2, -z+1/2'
9 'x+1/2, z+1/2, -y+1/2'
10 '-z+1/2, -y+1/2, x+1/2'
11 '-y+1/2, -x+1/2, z+1/2'
12 '-x+1/2, -z+1/2, y+1/2'
13 '-z+1/2, y+1/2, x+1/2'
14 '-y+1/2, x+1/2, z+1/2'
15 '-x+1/2, z+1/2, y+1/2'
16 'z+1/2, -y+1/2, -x+1/2'
17 'y+1/2, -x+1/2, -z+1/2'
18 'x+1/2, -z+1/2, -y+1/2'
19 '-z+1/2, -y+1/2, -x+1/2'
20 '-y+1/2, -x+1/2, -z+1/2'
21 '-x+1/2, -z+1/2, -y+1/2'
22 'z+1/2, y+1/2, x+1/2'
23 'y+1/2, x+1/2, z+1/2'
24 'x+1/2, z+1/2, y+1/2'
25 'z, x, -y'
26 'y, z, -x'
27 'x, y, -z'
28 '-z, -x, y'
29 '-y, -z, x'
30 '-x, -y, z'
31 'z, -x, y'
32 'y, -z, x'
33 'x, -y, z'
34 '-z, x, -y'
35 '-y, z, -x'
36 '-x, y, -z'
37 '-z, x, y'
38 '-y, z, x'
39 '-x, y, z'
40 'z, -x, -y'
41 'y, -z, -x'
42 'x, -y, -z'
43 '-z, -x, -y'
44 '-y, -z, -x'
45 '-x, -y, -z'
46 'z, x, y'
47 'y, z, x'
48 'x, y, z'
loop_
_atom_type_symbol
_atom_type_oxidation_number
Cs0+ 0
Ge0+ 0
loop_
_atom_site_label
_atom_site_type_symbol
_atom_site_symmetry_multiplicity
_atom_site_Wyckoff_symbol
_atom_site_fract_x
_atom_site_fract_y
_atom_site_fract_z
_atom_site_U_iso_or_equiv
_atom_site_occupancy
Cs1 Cs0+ 2 a 0 0 0 0.01195(5) 1.
Cs2 Cs0+ 6 d 0.25 0.5 0 0.01998(7) 1.
Ge1 Ge0+ 6 c 0.25 0 0.5 0.0099(1) 0.734(4)
Ge2 Ge0+ 16 i 0.18429(2) 0.18429 0.18429 0.01204(3) 1.
Ge3 Ge0+ 24 k 0 0.30424(6) 0.1185(1) 0.0111(1) 0.720(2)
Ge4 Ge0+ 24 k 0 0.3311(2) 0.1266(3) 0.0127(3) 0.28
loop_
_atom_site_aniso_label
_atom_site_aniso_type_symbol
_atom_site_aniso_U_11
_atom_site_aniso_U_22
_atom_site_aniso_U_33
_atom_site_aniso_U_12
_atom_site_aniso_U_13
_atom_site_aniso_U_23
Cs1 Cs0+ 0.01195(8) 0.01195(8) 0.01195(8) 0 0 0
Cs2 Cs0+ 0.0139(2) 0.0230(1) 0.0230(1) 0 0 0
Ge1 Ge0+ 0.0111(3) 0.0092(2) 0.0092(2) 0 0 0
Ge2 Ge0+ 0.01204(6) 0.01204(6) 0.01204(6) -0.00171(5) -0.00171(5) -0.00171(5)
Ge3 Ge0+ 0.0113(2) 0.0106(2) 0.0114(2) 0 0 -0.0010(2)
Ge4 Ge0+ 0.0110(4) 0.0134(7) 0.0137(6) 0 0 0.0021(6)
#End of TTdata_423131-ICSD