
#(C) 2025 by FIZ Karlsruhe - Leibniz Institute for Information Infrastructure.  All rights reserved.
data_165370-ICSD
_database_code_ICSD 165370
_audit_creation_date 2010-02-01
_chemical_name_common 'Potassium cesium stannide (1.6/6.4/44.0)'
_chemical_formula_structural '(K1.58 Cs6.42) Sn44.02'
_chemical_formula_sum 'Cs6.42 K1.58 Sn44.02'
_chemical_name_structure_type K8Si46
_exptl_crystal_density_diffrn 5.78
_diffrn_ambient_temperature 293.
_citation_title

;
Zintl phases in alkali-metal - tin systems: K8 Sn25 with condensed pentagonal
dodecahedra of tin. Two A8 Sn44 phases with a defect clathrate structure
;
loop_
_citation_id
_citation_journal_full
_citation_year
_citation_journal_volume
_citation_page_first
_citation_page_last
_citation_journal_id_ASTM
primary 'Inorganic Chemistry' 1994 33 5721 5726 INOCAJ
loop_
_citation_author_citation_id
_citation_author_name
primary 'Zhao Jing Tai'
primary 'Corbett, J.D.'
_cell_length_a 12.084(1)
_cell_length_b 12.084(1)
_cell_length_c 12.084(1)
_cell_angle_alpha 90.
_cell_angle_beta 90.
_cell_angle_gamma 90.
_cell_volume 1764.54
_cell_formula_units_Z 1
_space_group_name_H-M_alt 'P m -3 n'
_space_group_IT_number 223
loop_
_space_group_symop_id
_space_group_symop_operation_xyz
1 'z+1/2, -y+1/2, x+1/2'
2 'y+1/2, -x+1/2, z+1/2'
3 'x+1/2, -z+1/2, y+1/2'
4 '-z+1/2, y+1/2, -x+1/2'
5 '-y+1/2, x+1/2, -z+1/2'
6 '-x+1/2, z+1/2, -y+1/2'
7 'z+1/2, y+1/2, -x+1/2'
8 'y+1/2, x+1/2, -z+1/2'
9 'x+1/2, z+1/2, -y+1/2'
10 '-z+1/2, -y+1/2, x+1/2'
11 '-y+1/2, -x+1/2, z+1/2'
12 '-x+1/2, -z+1/2, y+1/2'
13 '-z+1/2, y+1/2, x+1/2'
14 '-y+1/2, x+1/2, z+1/2'
15 '-x+1/2, z+1/2, y+1/2'
16 'z+1/2, -y+1/2, -x+1/2'
17 'y+1/2, -x+1/2, -z+1/2'
18 'x+1/2, -z+1/2, -y+1/2'
19 '-z+1/2, -y+1/2, -x+1/2'
20 '-y+1/2, -x+1/2, -z+1/2'
21 '-x+1/2, -z+1/2, -y+1/2'
22 'z+1/2, y+1/2, x+1/2'
23 'y+1/2, x+1/2, z+1/2'
24 'x+1/2, z+1/2, y+1/2'
25 'z, x, -y'
26 'y, z, -x'
27 'x, y, -z'
28 '-z, -x, y'
29 '-y, -z, x'
30 '-x, -y, z'
31 'z, -x, y'
32 'y, -z, x'
33 'x, -y, z'
34 '-z, x, -y'
35 '-y, z, -x'
36 '-x, y, -z'
37 '-z, x, y'
38 '-y, z, x'
39 '-x, y, z'
40 'z, -x, -y'
41 'y, -z, -x'
42 'x, -y, -z'
43 '-z, -x, -y'
44 '-y, -z, -x'
45 '-x, -y, -z'
46 'z, x, y'
47 'y, z, x'
48 'x, y, z'
loop_
_atom_type_symbol
_atom_type_oxidation_number
Sn0+ 0
K0+ 0
Cs0+ 0
K0+ 0
Cs0+ 0
loop_
_atom_site_label
_atom_site_type_symbol
_atom_site_symmetry_multiplicity
_atom_site_Wyckoff_symbol
_atom_site_fract_x
_atom_site_fract_y
_atom_site_fract_z
_atom_site_B_iso_or_equiv
_atom_site_occupancy
Sn1 Sn0+ 24 k 0 0.3164(3) 0.1192(3) 3.29(1) 1.
Sn2 Sn0+ 16 i 0.1829(1) 0.1829(1) 0.1829(1) 1.642(1) 1.
Sn3 Sn0+ 6 c 0.25 0 0.5 1.1(2) 0.67(1)
K1 K0+ 2 a 0 0 0 1.124(5) 0.67(4)
Cs1 Cs0+ 2 a 0 0 0 1.124(5) 0.33(4)
K2 K0+ 6 d 0.25 0.5 0 2.7(1) 0.04(2)
Cs2 Cs0+ 6 d 0.25 0.5 0 2.7(1) 0.96(2)
#End of TTdata_165370-ICSD