
#(C) 2025 by FIZ Karlsruhe - Leibniz Institute for Information Infrastructure.  All rights reserved.
data_171237-ICSD
_database_code_ICSD 171237
_audit_creation_date 2006-10-01
_chemical_name_common 'Tin copper arsenide iodide (19.3/4.7/22/8)'
_chemical_formula_structural 'Sn19.3 Cu4.7 As22 I8'
_chemical_formula_sum 'As22 Cu4.7 I8 Sn19.3'
_chemical_name_structure_type K8Si46
_exptl_crystal_density_diffrn 6.26
_diffrn_ambient_temperature 290.
_citation_title

;
Sn19.3 Cu4.7 As22 I8: a new clathrate-I compound with transition metal atoms
in the cationic framework
;
loop_
_citation_id
_citation_journal_full
_citation_year
_citation_journal_volume
_citation_page_first
_citation_page_last
_citation_journal_id_ASTM
primary 'Inorganic Chemistry' 2005 44 8786 8793 INOCAJ
loop_
_citation_author_citation_id
_citation_author_name
primary 'Kovnir, K.A.'
primary 'Sobolev, A.V.'
primary 'Presniakov, I.A.'
primary 'Lebedev, O.I.'
primary 'van Tendeloo, G.'
primary 'Schnelle, W.'
primary "Grin', Yu. (Hrin', Yu."
primary ' Grin, Yu.'
primary ' Hrin, Yu.)'
primary 'Shevelkov, A.V.'
_cell_length_a 11.1720(10)
_cell_length_b 11.1720(10)
_cell_length_c 11.1720(10)
_cell_angle_alpha 90.
_cell_angle_beta 90.
_cell_angle_gamma 90.
_cell_volume 1394.42
_cell_formula_units_Z 1
_space_group_name_H-M_alt 'P m -3 n'
_space_group_IT_number 223
loop_
_space_group_symop_id
_space_group_symop_operation_xyz
1 'z+1/2, -y+1/2, x+1/2'
2 'y+1/2, -x+1/2, z+1/2'
3 'x+1/2, -z+1/2, y+1/2'
4 '-z+1/2, y+1/2, -x+1/2'
5 '-y+1/2, x+1/2, -z+1/2'
6 '-x+1/2, z+1/2, -y+1/2'
7 'z+1/2, y+1/2, -x+1/2'
8 'y+1/2, x+1/2, -z+1/2'
9 'x+1/2, z+1/2, -y+1/2'
10 '-z+1/2, -y+1/2, x+1/2'
11 '-y+1/2, -x+1/2, z+1/2'
12 '-x+1/2, -z+1/2, y+1/2'
13 '-z+1/2, y+1/2, x+1/2'
14 '-y+1/2, x+1/2, z+1/2'
15 '-x+1/2, z+1/2, y+1/2'
16 'z+1/2, -y+1/2, -x+1/2'
17 'y+1/2, -x+1/2, -z+1/2'
18 'x+1/2, -z+1/2, -y+1/2'
19 '-z+1/2, -y+1/2, -x+1/2'
20 '-y+1/2, -x+1/2, -z+1/2'
21 '-x+1/2, -z+1/2, -y+1/2'
22 'z+1/2, y+1/2, x+1/2'
23 'y+1/2, x+1/2, z+1/2'
24 'x+1/2, z+1/2, y+1/2'
25 'z, x, -y'
26 'y, z, -x'
27 'x, y, -z'
28 '-z, -x, y'
29 '-y, -z, x'
30 '-x, -y, z'
31 'z, -x, y'
32 'y, -z, x'
33 'x, -y, z'
34 '-z, x, -y'
35 '-y, z, -x'
36 '-x, y, -z'
37 '-z, x, y'
38 '-y, z, x'
39 '-x, y, z'
40 'z, -x, -y'
41 'y, -z, -x'
42 'x, -y, -z'
43 '-z, -x, -y'
44 '-y, -z, -x'
45 '-x, -y, -z'
46 'z, x, y'
47 'y, z, x'
48 'x, y, z'
loop_
_atom_type_symbol
_atom_type_oxidation_number
I0+ 0
Sn0+ 0
Cu0+ 0
As0+ 0
loop_
_atom_site_label
_atom_site_type_symbol
_atom_site_symmetry_multiplicity
_atom_site_Wyckoff_symbol
_atom_site_fract_x
_atom_site_fract_y
_atom_site_fract_z
_atom_site_U_iso_or_equiv
_atom_site_occupancy
I1 I0+ 2 a 0. 0. 0. 0.0091(4) 1
I2 I0+ 6 d 0.5 0. 0.25 0.0182(4) 1
Sn1 Sn0+ 24 k 0.1261(6) 0. 0.3098(3) 0.0099(8) 0.603(18)
Sn2 Sn0+ 24 k 0.0850(9) 0. 0.3261(5) 0.0196(13) 0.200(10)
Cu1 Cu0+ 24 k 0.1423(14) 0. 0.2980(11) 0.006(3) 0.20(3)
As1 As0+ 16 i 0.18766(5) 0.18766(5) 0.18766(5) 0.0136(3) 1
As2 As0+ 6 c 0.25 0. 0.5 0.0196(5) 1
loop_
_atom_site_aniso_label
_atom_site_aniso_type_symbol
_atom_site_aniso_U_11
_atom_site_aniso_U_22
_atom_site_aniso_U_33
_atom_site_aniso_U_12
_atom_site_aniso_U_13
_atom_site_aniso_U_23
I1 I0+ 0.0091(4) 0.0091(4) 0.0091(4) 0. 0. 0.
I2 I0+ 0.0216(4) 0.0216(4) 0.0114(5) 0. 0. 0.
As1 As0+ 0.0136(3) 0.0136(3) 0.0136(3) -0.0036(2) -0.0036(2) -0.0036(2)
As2 As0+ 0.0246(10) 0.0172(5) 0.0172(5) 0. 0. 0.
#End of TTdata_171237-ICSD