
#(C) 2025 by FIZ Karlsruhe - Leibniz Institute for Information Infrastructure.  All rights reserved.
data_213987-ICSD
_database_code_ICSD 213987
_audit_creation_date 2025-02-01
_chemical_name_common 'Barium praseodymium gold silicon (7.36/0.64/5.74/40.26)'
_chemical_formula_structural '(Ba7.36 Pr0.64)  Au5.74 Si40.26'
_chemical_formula_sum 'Au5.74 Ba7.36 Pr0.64 Si40.26'
_chemical_name_structure_type K8Si46
_exptl_crystal_density_diffrn 4.98
_diffrn_ambient_temperature 296.
_citation_title

;
Mechanism of rare earth incorporation and crystal growth of rare earth
containing type-I clathrates
;
loop_
_citation_id
_citation_journal_full
_citation_year
_citation_journal_volume
_citation_page_first
_citation_page_last
_citation_journal_id_ASTM
primary 'Crystal Growth & Design' 2016 16 25 33 CGDEFU
loop_
_citation_author_citation_id
_citation_author_name
primary 'Prokofiev, Andrey'
primary 'Svagera, Robert'
primary 'Waas, Monika'
primary 'Weil, Matthias'
primary 'Bernardi, Johannes'
primary 'Paschen, Silke'
_cell_length_a 10.3895(3)
_cell_length_b 10.3895(3)
_cell_length_c 10.3895(3)
_cell_angle_alpha 90.
_cell_angle_beta 90.
_cell_angle_gamma 90.
_cell_volume 1121.46
_cell_formula_units_Z 1
_space_group_name_H-M_alt 'P m -3 n'
_space_group_IT_number 223
loop_
_space_group_symop_id
_space_group_symop_operation_xyz
1 'z+1/2, -y+1/2, x+1/2'
2 'y+1/2, -x+1/2, z+1/2'
3 'x+1/2, -z+1/2, y+1/2'
4 '-z+1/2, y+1/2, -x+1/2'
5 '-y+1/2, x+1/2, -z+1/2'
6 '-x+1/2, z+1/2, -y+1/2'
7 'z+1/2, y+1/2, -x+1/2'
8 'y+1/2, x+1/2, -z+1/2'
9 'x+1/2, z+1/2, -y+1/2'
10 '-z+1/2, -y+1/2, x+1/2'
11 '-y+1/2, -x+1/2, z+1/2'
12 '-x+1/2, -z+1/2, y+1/2'
13 '-z+1/2, y+1/2, x+1/2'
14 '-y+1/2, x+1/2, z+1/2'
15 '-x+1/2, z+1/2, y+1/2'
16 'z+1/2, -y+1/2, -x+1/2'
17 'y+1/2, -x+1/2, -z+1/2'
18 'x+1/2, -z+1/2, -y+1/2'
19 '-z+1/2, -y+1/2, -x+1/2'
20 '-y+1/2, -x+1/2, -z+1/2'
21 '-x+1/2, -z+1/2, -y+1/2'
22 'z+1/2, y+1/2, x+1/2'
23 'y+1/2, x+1/2, z+1/2'
24 'x+1/2, z+1/2, y+1/2'
25 'z, x, -y'
26 'y, z, -x'
27 'x, y, -z'
28 '-z, -x, y'
29 '-y, -z, x'
30 '-x, -y, z'
31 'z, -x, y'
32 'y, -z, x'
33 'x, -y, z'
34 '-z, x, -y'
35 '-y, z, -x'
36 '-x, y, -z'
37 '-z, x, y'
38 '-y, z, x'
39 '-x, y, z'
40 'z, -x, -y'
41 'y, -z, -x'
42 'x, -y, -z'
43 '-z, -x, -y'
44 '-y, -z, -x'
45 '-x, -y, -z'
46 'z, x, y'
47 'y, z, x'
48 'x, y, z'
loop_
_atom_type_symbol
_atom_type_oxidation_number
Pr0+ 0
Ba0+ 0
Au0+ 0
Si0+ 0
Au0+ 0
loop_
_atom_site_label
_atom_site_type_symbol
_atom_site_symmetry_multiplicity
_atom_site_Wyckoff_symbol
_atom_site_fract_x
_atom_site_fract_y
_atom_site_fract_z
_atom_site_U_iso_or_equiv
_atom_site_occupancy
Pr1 Pr0+ 2 a 0. 0. 0. 0.00777(11) 0.32(4)
Ba1 Ba0+ 2 a 0. 0. 0. 0.00777(11) 0.68(4)
Ba2 Ba0+ 6 d 0.25 0.5 0. 0.01677(9) 1
Au1 Au0+ 6 c 0.25 0. 0.5 0.00665(4) 0.953(2)
Si1 Si0+ 6 c 0.25 0. 0.5 0.00665(4) 0.047(2)
Si2 Si0+ 16 i 0.18317(4) 0.18317(4) 0.18317(4) 0.00663(13) 1
Si3 Si0+ 24 k 0. 0.30410(7) 0.11716(7) 0.00677(19) 0.9989(7)
Au2 Au0+ 24 k 0. 0.30410(7) 0.11716(7) 0.00677(19) 0.0011(7)
loop_
_atom_site_aniso_label
_atom_site_aniso_type_symbol
_atom_site_aniso_U_11
_atom_site_aniso_U_22
_atom_site_aniso_U_33
_atom_site_aniso_U_12
_atom_site_aniso_U_13
_atom_site_aniso_U_23
Pr1 Pr0+ 0.00777(11) 0.00777(11) 0.00777(11) 0. 0. 0.
Ba1 Ba0+ 0.00777(11) 0.00777(11) 0.00777(11) 0. 0. 0.
Ba2 Ba0+ 0.01111(15) 0.01960(12) 0.01960(12) 0. 0. 0.
Au1 Au0+ 0.00772(8) 0.00612(5) 0.00612(5) 0. 0. 0.
Si1 Si0+ 0.00772(8) 0.00612(5) 0.00612(5) 0. 0. 0.
Si2 Si0+ 0.00663(13) 0.00663(13) 0.00663(13) -0.00062(13) -0.00062(13)
-0.00062(13)
Si3 Si0+ 0.0069(3) 0.0064(3) 0.0069(3) 0. 0. 0.0001(2)
Au2 Au0+ 0.0069(3) 0.0064(3) 0.0069(3) 0. 0. 0.0001(2)
#End of TTdata_213987-ICSD