
#(C) 2025 by FIZ Karlsruhe - Leibniz Institute for Information Infrastructure.  All rights reserved.
data_129924-ICSD
_database_code_ICSD 129924
_audit_creation_date 2025-02-01
_chemical_name_common 'Barium copper zinc phosphide (8/13.70/2.40/29.90)'
_chemical_formula_structural 'Ba8 Cu13.70  Zn2.40 P29.90'
_chemical_formula_sum 'Ba8 Cu13.7 P29.9 Zn2.4'
_chemical_name_structure_type K8Si46
_exptl_crystal_density_diffrn 5.06
_diffrn_ambient_temperature 10.
_citation_title

;
Chemical bonding and transport properties in clathrates-I with Cu-Zn-P
frameworks
;
loop_
_citation_id
_citation_journal_full
_citation_year
_citation_journal_volume
_citation_page_first
_citation_page_last
_citation_journal_id_ASTM
primary 'Chemistry of Materials' 2018 30 3419 3428 CMATEX
loop_
_citation_author_citation_id
_citation_author_name
primary 'Dolyniuk, Juli-Anna'
primary 'Wang, Jian'
primary 'Marple, Maxwell A.T.'
primary 'Sen, Sabyasachi'
primary 'Cheng, Yongqiang'
primary 'Ramirez-Cuesta, Anibal J.'
primary 'Kovnir, Kirill'
_cell_length_a 10.0077(9)
_cell_length_b 10.0077(9)
_cell_length_c 10.0077(9)
_cell_angle_alpha 90
_cell_angle_beta 90
_cell_angle_gamma 90
_cell_volume 1002.31
_cell_formula_units_Z 1
_space_group_name_H-M_alt 'P m -3 n'
_space_group_IT_number 223
loop_
_space_group_symop_id
_space_group_symop_operation_xyz
1 'z+1/2, -y+1/2, x+1/2'
2 'y+1/2, -x+1/2, z+1/2'
3 'x+1/2, -z+1/2, y+1/2'
4 '-z+1/2, y+1/2, -x+1/2'
5 '-y+1/2, x+1/2, -z+1/2'
6 '-x+1/2, z+1/2, -y+1/2'
7 'z+1/2, y+1/2, -x+1/2'
8 'y+1/2, x+1/2, -z+1/2'
9 'x+1/2, z+1/2, -y+1/2'
10 '-z+1/2, -y+1/2, x+1/2'
11 '-y+1/2, -x+1/2, z+1/2'
12 '-x+1/2, -z+1/2, y+1/2'
13 '-z+1/2, y+1/2, x+1/2'
14 '-y+1/2, x+1/2, z+1/2'
15 '-x+1/2, z+1/2, y+1/2'
16 'z+1/2, -y+1/2, -x+1/2'
17 'y+1/2, -x+1/2, -z+1/2'
18 'x+1/2, -z+1/2, -y+1/2'
19 '-z+1/2, -y+1/2, -x+1/2'
20 '-y+1/2, -x+1/2, -z+1/2'
21 '-x+1/2, -z+1/2, -y+1/2'
22 'z+1/2, y+1/2, x+1/2'
23 'y+1/2, x+1/2, z+1/2'
24 'x+1/2, z+1/2, y+1/2'
25 'z, x, -y'
26 'y, z, -x'
27 'x, y, -z'
28 '-z, -x, y'
29 '-y, -z, x'
30 '-x, -y, z'
31 'z, -x, y'
32 'y, -z, x'
33 'x, -y, z'
34 '-z, x, -y'
35 '-y, z, -x'
36 '-x, y, -z'
37 '-z, x, y'
38 '-y, z, x'
39 '-x, y, z'
40 'z, -x, -y'
41 'y, -z, -x'
42 'x, -y, -z'
43 '-z, -x, -y'
44 '-y, -z, -x'
45 '-x, -y, -z'
46 'z, x, y'
47 'y, z, x'
48 'x, y, z'
loop_
_atom_type_symbol
_atom_type_oxidation_number
Ba0+ 0
Cu0+ 0
Zn0+ 0
P0+ 0
Cu0+ 0
Zn0+ 0
P0+ 0
Cu0+ 0
P0+ 0
loop_
_atom_site_label
_atom_site_type_symbol
_atom_site_symmetry_multiplicity
_atom_site_Wyckoff_symbol
_atom_site_fract_x
_atom_site_fract_y
_atom_site_fract_z
_atom_site_U_iso_or_equiv
_atom_site_occupancy
Ba1 Ba0+ 2 a 0. 0. 0. 0.0095(3) 1
Ba2 Ba0+ 6 d 0.25 0.5 0. 0.0173(2) 1
Cu1 Cu0+ 6 c 0.25 0. 0.5 0.0095(5) 0.1634
Zn1 Zn0+ 6 c 0.25 0. 0.5 0.0095(5) 0.1317
P1 P0+ 6 c 0.25 0. 0.5 0.0095(5) 0.7052
Cu2 Cu0+ 16 i 0.18546(9) 0.18546(9) 0.18546(9) 0.0112(3) 0.1256
Zn2 Zn0+ 16 i 0.18546(9) 0.18546(9) 0.18546(9) 0.0112(3) 0.1006
P2 P0+ 16 i 0.18546(9) 0.18546(9) 0.18546(9) 0.0112(3) 0.7736
Cu3 Cu0+ 24 k 0. 0.30853(12) 0.12022(12) 0.0122(3) 0.448(8)
P3 P0+ 24 k 0. 0.30853(12) 0.12022(12) 0.0122(3) 0.552(8)
loop_
_atom_site_aniso_label
_atom_site_aniso_type_symbol
_atom_site_aniso_U_11
_atom_site_aniso_U_22
_atom_site_aniso_U_33
_atom_site_aniso_U_12
_atom_site_aniso_U_13
_atom_site_aniso_U_23
Ba1 Ba0+ 0.0095(3) 0.0095(3) 0.0095(3) 0. 0. 0.
Ba2 Ba0+ 0.0116(4) 0.0202(3) 0.0202(3) 0. 0. 0.
Cu1 Cu0+ 0.0103(12) 0.0091(7) 0.0091(7) 0. 0. 0.
Zn1 Zn0+ 0.0103(12) 0.0091(7) 0.0091(7) 0. 0. 0.
P1 P0+ 0.0103(12) 0.0091(7) 0.0091(7) 0. 0. 0.
Cu2 Cu0+ 0.0112(3) 0.0112(3) 0.0112(3) -0.0002(3) -0.0002(3) -0.0002(3)
Zn2 Zn0+ 0.0112(3) 0.0112(3) 0.0112(3) -0.0002(3) -0.0002(3) -0.0002(3)
P2 P0+ 0.0112(3) 0.0112(3) 0.0112(3) -0.0002(3) -0.0002(3) -0.0002(3)
Cu3 Cu0+ 0.0127(6) 0.0122(6) 0.0118(6) 0. 0. -0.0009(4)
P3 P0+ 0.0127(6) 0.0122(6) 0.0118(6) 0. 0. -0.0009(4)
#End of TTdata_129924-ICSD