
#(C) 2025 by FIZ Karlsruhe - Leibniz Institute for Information Infrastructure.  All rights reserved.
data_417940-ICSD
_database_code_ICSD 417940
_audit_creation_date 2008-08-01
_chemical_name_common 'Tin phosphide chloride iodide (24/19.30/0.80/7.18)'
_chemical_formula_structural 'Sn24 P19.30 Cl0.80 I7.18'
_chemical_formula_sum 'Cl0.8 I7.18 P19.3 Sn24'
_chemical_name_structure_type K8Si46
_exptl_crystal_density_diffrn 5.57
_diffrn_ambient_temperature 293.
_citation_title

;
Crystal structure, thermoelectric and magnetic properties of the type-I
clathrate solid solutions Sn24 P19.3(2) Br(x) I(8-x) (0 <= x <= 8) and Sn24
P19.3(2) Cl(y) I(8-y) (y <= 0.8)
;
loop_
_citation_id
_citation_journal_full
_citation_year
_citation_journal_volume
_citation_page_first
_citation_page_last
_citation_journal_id_ASTM
primary 'Solid State Sciences' 2007 9 664 671 SSSCFJ
loop_
_citation_author_citation_id
_citation_author_name
primary 'Zaikina, J.V.'
primary 'Schnelle, W.'
primary 'Kovnir, K.A.'
primary 'Olenev, A.V.'
primary "Grin', Yu. (Hrin', Yu."
primary ' Grin, Yu.'
primary ' Hrin, Yu.)'
primary 'Shevelkov, A.V.'
_cell_length_a 10.9331(8)
_cell_length_b 10.9331(8)
_cell_length_c 10.9331(8)
_cell_angle_alpha 90.
_cell_angle_beta 90.
_cell_angle_gamma 90.
_cell_volume 1306.86
_cell_formula_units_Z 1
_space_group_name_H-M_alt 'P m -3 n'
_space_group_IT_number 223
loop_
_space_group_symop_id
_space_group_symop_operation_xyz
1 'z+1/2, -y+1/2, x+1/2'
2 'y+1/2, -x+1/2, z+1/2'
3 'x+1/2, -z+1/2, y+1/2'
4 '-z+1/2, y+1/2, -x+1/2'
5 '-y+1/2, x+1/2, -z+1/2'
6 '-x+1/2, z+1/2, -y+1/2'
7 'z+1/2, y+1/2, -x+1/2'
8 'y+1/2, x+1/2, -z+1/2'
9 'x+1/2, z+1/2, -y+1/2'
10 '-z+1/2, -y+1/2, x+1/2'
11 '-y+1/2, -x+1/2, z+1/2'
12 '-x+1/2, -z+1/2, y+1/2'
13 '-z+1/2, y+1/2, x+1/2'
14 '-y+1/2, x+1/2, z+1/2'
15 '-x+1/2, z+1/2, y+1/2'
16 'z+1/2, -y+1/2, -x+1/2'
17 'y+1/2, -x+1/2, -z+1/2'
18 'x+1/2, -z+1/2, -y+1/2'
19 '-z+1/2, -y+1/2, -x+1/2'
20 '-y+1/2, -x+1/2, -z+1/2'
21 '-x+1/2, -z+1/2, -y+1/2'
22 'z+1/2, y+1/2, x+1/2'
23 'y+1/2, x+1/2, z+1/2'
24 'x+1/2, z+1/2, y+1/2'
25 'z, x, -y'
26 'y, z, -x'
27 'x, y, -z'
28 '-z, -x, y'
29 '-y, -z, x'
30 '-x, -y, z'
31 'z, -x, y'
32 'y, -z, x'
33 'x, -y, z'
34 '-z, x, -y'
35 '-y, z, -x'
36 '-x, y, -z'
37 '-z, x, y'
38 '-y, z, x'
39 '-x, y, z'
40 'z, -x, -y'
41 'y, -z, -x'
42 'x, -y, -z'
43 '-z, -x, -y'
44 '-y, -z, -x'
45 '-x, -y, -z'
46 'z, x, y'
47 'y, z, x'
48 'x, y, z'
loop_
_atom_type_symbol
_atom_type_oxidation_number
I0+ 0
Cl0+ 0
I0+ 0
Cl0+ 0
Sn0+ 0
P0+ 0
Sn0+ 0
loop_
_atom_site_label
_atom_site_type_symbol
_atom_site_symmetry_multiplicity
_atom_site_Wyckoff_symbol
_atom_site_fract_x
_atom_site_fract_y
_atom_site_fract_z
_atom_site_U_iso_or_equiv
_atom_site_occupancy
I1 I0+ 2 a 0. 0. 0. 0.0147(6) 0.827(10)
Cl1 Cl0+ 2 a 0. 0. 0. 0.0147(6) 0.173(10)
I2 I0+ 6 d 0.25 0.5 0. 0.0191(4) 0.924(7)
Cl2 Cl0+ 6 d 0.25 0.5 0. 0.0191(4) 0.076(7)
Sn1 Sn0+ 24 k 0. 0.3088(4) 0.1134(5) 0.0155(7) 0.547(13)
P1 P0+ 16 i 0.19199(11) 0.19199(11) 0.19199(11) 0.0108(4) 1
P2 P0+ 6 c 0. 0.5 0.25 0.015(2) 0.55(2)
Sn2 Sn0+ 24 k 0. 0.3429(5) 0.1533(5) 0.0163(7) 0.453(13)
loop_
_atom_site_aniso_label
_atom_site_aniso_type_symbol
_atom_site_aniso_U_11
_atom_site_aniso_U_22
_atom_site_aniso_U_33
_atom_site_aniso_U_12
_atom_site_aniso_U_13
_atom_site_aniso_U_23
I1 I0+ 0.0147(6) 0.0147(6) 0.0147(6) 0. 0. 0.
Cl1 Cl0+ 0.0147(6) 0.0147(6) 0.0147(6) 0. 0. 0.
I2 I0+ 0.0143(6) 0.0214(5) 0.0214(5) 0. 0. 0.
Cl2 Cl0+ 0.0143(6) 0.0214(5) 0.0214(5) 0. 0. 0.
Sn1 Sn0+ 0.0132(5) 0.0155(10) 0.0180(13) 0. 0. 0.0005(9)
P1 P0+ 0.0108(4) 0.0108(4) 0.0108(4) 0.0007(5) 0.0007(5) 0.0007(5)
P2 P0+ 0.013(3) 0.013(3) 0.018(4) 0. 0. 0.
Sn2 Sn0+ 0.0155(7) 0.0191(12) 0.0144(13) 0. 0. -0.0037(11)
#End of TTdata_417940-ICSD