
#(C) 2025 by FIZ Karlsruhe - Leibniz Institute for Information Infrastructure.  All rights reserved.
data_40567-ICSD
_database_code_ICSD 40567
_audit_creation_date 1999-11-30
_audit_update_record 2019-02-01
_chemical_name_common 'Barium gold silicide (8/6/40)'
_chemical_formula_structural 'Ba8 Au6 Si40'
_chemical_formula_sum 'Au6 Ba8 Si40'
_chemical_name_structure_type K8Si46
_exptl_crystal_density_diffrn 4.99
_citation_title

;
Neue ternaere intermetallische Verbindungen mit Clathratstruktur:
Ba8(T,Si)6Si40 und Ba6(T,Ge)6Ge40 mit T ident to Ni, Pd, Pt, Cu, Ag, Au
;
loop_
_citation_id
_citation_journal_full
_citation_year
_citation_journal_volume
_citation_page_first
_citation_page_last
_citation_journal_id_ASTM
primary 'Journal of the Less-Common Metals' 1991 169 291 302 JCOMAH
loop_
_citation_author_citation_id
_citation_author_name
primary 'Cordier, Gerhard'
primary 'Woll, Petra'
_cell_length_a 10.422(2)
_cell_length_b 10.422(2)
_cell_length_c 10.422(2)
_cell_angle_alpha 90.
_cell_angle_beta 90.
_cell_angle_gamma 90.
_cell_volume 1132.02
_cell_formula_units_Z 1
_space_group_name_H-M_alt 'P m -3 n'
_space_group_IT_number 223
loop_
_space_group_symop_id
_space_group_symop_operation_xyz
1 'z+1/2, -y+1/2, x+1/2'
2 'y+1/2, -x+1/2, z+1/2'
3 'x+1/2, -z+1/2, y+1/2'
4 '-z+1/2, y+1/2, -x+1/2'
5 '-y+1/2, x+1/2, -z+1/2'
6 '-x+1/2, z+1/2, -y+1/2'
7 'z+1/2, y+1/2, -x+1/2'
8 'y+1/2, x+1/2, -z+1/2'
9 'x+1/2, z+1/2, -y+1/2'
10 '-z+1/2, -y+1/2, x+1/2'
11 '-y+1/2, -x+1/2, z+1/2'
12 '-x+1/2, -z+1/2, y+1/2'
13 '-z+1/2, y+1/2, x+1/2'
14 '-y+1/2, x+1/2, z+1/2'
15 '-x+1/2, z+1/2, y+1/2'
16 'z+1/2, -y+1/2, -x+1/2'
17 'y+1/2, -x+1/2, -z+1/2'
18 'x+1/2, -z+1/2, -y+1/2'
19 '-z+1/2, -y+1/2, -x+1/2'
20 '-y+1/2, -x+1/2, -z+1/2'
21 '-x+1/2, -z+1/2, -y+1/2'
22 'z+1/2, y+1/2, x+1/2'
23 'y+1/2, x+1/2, z+1/2'
24 'x+1/2, z+1/2, y+1/2'
25 'z, x, -y'
26 'y, z, -x'
27 'x, y, -z'
28 '-z, -x, y'
29 '-y, -z, x'
30 '-x, -y, z'
31 'z, -x, y'
32 'y, -z, x'
33 'x, -y, z'
34 '-z, x, -y'
35 '-y, z, -x'
36 '-x, y, -z'
37 '-z, x, y'
38 '-y, z, x'
39 '-x, y, z'
40 'z, -x, -y'
41 'y, -z, -x'
42 'x, -y, -z'
43 '-z, -x, -y'
44 '-y, -z, -x'
45 '-x, -y, -z'
46 'z, x, y'
47 'y, z, x'
48 'x, y, z'
loop_
_atom_type_symbol
_atom_type_oxidation_number
Ba0+ 0
Au0+ 0
Si0+ 0
loop_
_atom_site_label
_atom_site_type_symbol
_atom_site_symmetry_multiplicity
_atom_site_Wyckoff_symbol
_atom_site_fract_x
_atom_site_fract_y
_atom_site_fract_z
_atom_site_U_iso_or_equiv
_atom_site_occupancy
Ba1 Ba0+ 2 a 0 0 0 0.0140(11) 1.
Ba2 Ba0+ 6 d 0.25 0.5 0 . 1.
Au1 Au0+ 6 c 0.25 0 0.5 . 1.
Si1 Si0+ 16 i 0.1832(5) 0.1832 0.1832 . 1.
Si2 Si0+ 24 k 0 0.3059(7) 0.1287(7) . 1.
loop_
_atom_site_aniso_label
_atom_site_aniso_type_symbol
_atom_site_aniso_U_11
_atom_site_aniso_U_22
_atom_site_aniso_U_33
_atom_site_aniso_U_12
_atom_site_aniso_U_13
_atom_site_aniso_U_23
Ba2 Ba0+ 0.0218(19) 0.0299(13) 0.0299 0 0 0
Au1 Au0+ 0.0191(11) 0.0160(7) 0.016 0 0 0
Si1 Si0+ 0.0140(16) 0.014 0.014 -0.0022(17) -0.0022 -0.0022
Si2 Si0+ 0.0085(27) 0.0122(30) 0.0061(27) 0 0 -0.0013(25)
#End of TTdata_40567-ICSD