
#(C) 2025 by FIZ Karlsruhe - Leibniz Institute for Information Infrastructure.  All rights reserved.
data_213986-ICSD
_database_code_ICSD 213986
_audit_creation_date 2025-02-01
_chemical_name_common 'Barium ytterbium gold silicon (7.86/0.14/5.32/40.68)'
_chemical_formula_structural '( Ba7.86 Yb0.14) Au5.32 Si40.68'
_chemical_formula_sum 'Au5.32 Ba7.86 Si40.68 Yb0.14'
_chemical_name_structure_type K8Si46
_exptl_crystal_density_diffrn 4.84
_diffrn_ambient_temperature 296.
_citation_title

;
Mechanism of rare earth incorporation and crystal growth of rare earth
containing type-I clathrates
;
loop_
_citation_id
_citation_journal_full
_citation_year
_citation_journal_volume
_citation_page_first
_citation_page_last
_citation_journal_id_ASTM
primary 'Crystal Growth & Design' 2016 16 25 33 CGDEFU
loop_
_citation_author_citation_id
_citation_author_name
primary 'Prokofiev, Andrey'
primary 'Svagera, Robert'
primary 'Waas, Monika'
primary 'Weil, Matthias'
primary 'Bernardi, Johannes'
primary 'Paschen, Silke'
_cell_length_a 10.4152(9)
_cell_length_b 10.4152(9)
_cell_length_c 10.4152(9)
_cell_angle_alpha 90.
_cell_angle_beta 90.
_cell_angle_gamma 90.
_cell_volume 1129.8
_cell_formula_units_Z 1
_space_group_name_H-M_alt 'P m -3 n'
_space_group_IT_number 223
loop_
_space_group_symop_id
_space_group_symop_operation_xyz
1 'z+1/2, -y+1/2, x+1/2'
2 'y+1/2, -x+1/2, z+1/2'
3 'x+1/2, -z+1/2, y+1/2'
4 '-z+1/2, y+1/2, -x+1/2'
5 '-y+1/2, x+1/2, -z+1/2'
6 '-x+1/2, z+1/2, -y+1/2'
7 'z+1/2, y+1/2, -x+1/2'
8 'y+1/2, x+1/2, -z+1/2'
9 'x+1/2, z+1/2, -y+1/2'
10 '-z+1/2, -y+1/2, x+1/2'
11 '-y+1/2, -x+1/2, z+1/2'
12 '-x+1/2, -z+1/2, y+1/2'
13 '-z+1/2, y+1/2, x+1/2'
14 '-y+1/2, x+1/2, z+1/2'
15 '-x+1/2, z+1/2, y+1/2'
16 'z+1/2, -y+1/2, -x+1/2'
17 'y+1/2, -x+1/2, -z+1/2'
18 'x+1/2, -z+1/2, -y+1/2'
19 '-z+1/2, -y+1/2, -x+1/2'
20 '-y+1/2, -x+1/2, -z+1/2'
21 '-x+1/2, -z+1/2, -y+1/2'
22 'z+1/2, y+1/2, x+1/2'
23 'y+1/2, x+1/2, z+1/2'
24 'x+1/2, z+1/2, y+1/2'
25 'z, x, -y'
26 'y, z, -x'
27 'x, y, -z'
28 '-z, -x, y'
29 '-y, -z, x'
30 '-x, -y, z'
31 'z, -x, y'
32 'y, -z, x'
33 'x, -y, z'
34 '-z, x, -y'
35 '-y, z, -x'
36 '-x, y, -z'
37 '-z, x, y'
38 '-y, z, x'
39 '-x, y, z'
40 'z, -x, -y'
41 'y, -z, -x'
42 'x, -y, -z'
43 '-z, -x, -y'
44 '-y, -z, -x'
45 '-x, -y, -z'
46 'z, x, y'
47 'y, z, x'
48 'x, y, z'
loop_
_atom_type_symbol
_atom_type_oxidation_number
Yb0+ 0
Ba0+ 0
Au0+ 0
Si0+ 0
Au0+ 0
loop_
_atom_site_label
_atom_site_type_symbol
_atom_site_symmetry_multiplicity
_atom_site_Wyckoff_symbol
_atom_site_fract_x
_atom_site_fract_y
_atom_site_fract_z
_atom_site_U_iso_or_equiv
_atom_site_occupancy
Yb1 Yb0+ 2 a 0. 0. 0. 0.0077(2) 0.068(13)
Ba1 Ba0+ 2 a 0. 0. 0. 0.0077(2) 0.932(13)
Ba2 Ba0+ 6 d 0.25 0.5 0. 0.02120(15) 1
Au1 Au0+ 6 c 0.25 0. 0.5 0.00750(9) 0.862(3)
Si1 Si0+ 6 c 0.25 0. 0.5 0.00750(9) 0.138(3)
Si2 Si0+ 16 i 0.18368(5) 0.18368(5) 0.18368(5) 0.0072(2) 1
Si3 Si0+ 24 k 0. 0.30580(7) 0.11789(7) 0.0079(3) 0.9936(10)
Au2 Au0+ 24 k 0. 0.30580(7) 0.11789(7) 0.0079(3) 0.0064(10)
loop_
_atom_site_aniso_label
_atom_site_aniso_type_symbol
_atom_site_aniso_U_11
_atom_site_aniso_U_22
_atom_site_aniso_U_33
_atom_site_aniso_U_12
_atom_site_aniso_U_13
_atom_site_aniso_U_23
Yb1 Yb0+ 0.0077(2) 0.0077(2) 0.0077(2) 0. 0. 0.
Ba1 Ba0+ 0.0077(2) 0.0077(2) 0.0077(2) 0. 0. 0.
Ba2 Ba0+ 0.0150(2) 0.02427(18) 0.02427(18) 0. 0. 0.
Au1 Au0+ 0.00902(12) 0.00674(10) 0.00674(10) 0. 0. 0.
Si1 Si0+ 0.00902(12) 0.00674(10) 0.00674(10) 0. 0. 0.
Si2 Si0+ 0.0072(2) 0.0072(2) 0.0072(2) -0.00052(18) -0.00052(18) -0.00052(18)
Si3 Si0+ 0.0077(4) 0.0083(4) 0.0077(4) 0. 0. -0.0002(3)
Au2 Au0+ 0.0077(4) 0.0083(4) 0.0077(4) 0. 0. -0.0002(3)
#End of TTdata_213986-ICSD