
#(C) 2025 by FIZ Karlsruhe - Leibniz Institute for Information Infrastructure.  All rights reserved.
data_423639-ICSD
_database_code_ICSD 423639
_audit_creation_date 2012-02-01
_chemical_name_common 'Indium tin arsenide iodide (4.8/17/22/8)'
_chemical_formula_structural 'In4.8 Sn17 As22 I8'
_chemical_formula_sum 'As22 I8 In4.8 Sn17'
_chemical_name_structure_type K8Si46
_exptl_crystal_density_diffrn 6.21
_diffrn_ambient_temperature 293.
_citation_title

;
Synthesis, crystal structure, and thermoelectric properties of clathrates in
the Sn-In-As-I system
;
loop_
_citation_id
_citation_journal_full
_citation_year
_citation_journal_volume
_citation_page_first
_citation_page_last
_citation_journal_id_ASTM
primary 'Zeitschrift fuer Anorganische und Allgemeine Chemie (1950) (DE)' 2011
637 2059 2067 ZAACAB
loop_
_citation_author_citation_id
_citation_author_name
primary 'Kelm, E.A.'
primary 'Olenev, A.V.'
primary 'Bykov, M.A'
primary 'Sobolev, A.V.'
primary 'Presniakov, I.A.'
primary 'Kulbachinskii, V.A.'
primary 'Kytin, V.G.'
primary "Shevel'kov, A.V. (Shevelkov, A.V.)"
_cell_length_a 11.1819(8)
_cell_length_b 11.1819(8)
_cell_length_c 11.1819(8)
_cell_angle_alpha 90.
_cell_angle_beta 90.
_cell_angle_gamma 90.
_cell_volume 1398.13
_cell_formula_units_Z 1
_space_group_name_H-M_alt 'P m -3 n'
_space_group_IT_number 223
loop_
_space_group_symop_id
_space_group_symop_operation_xyz
1 'z+1/2, -y+1/2, x+1/2'
2 'y+1/2, -x+1/2, z+1/2'
3 'x+1/2, -z+1/2, y+1/2'
4 '-z+1/2, y+1/2, -x+1/2'
5 '-y+1/2, x+1/2, -z+1/2'
6 '-x+1/2, z+1/2, -y+1/2'
7 'z+1/2, y+1/2, -x+1/2'
8 'y+1/2, x+1/2, -z+1/2'
9 'x+1/2, z+1/2, -y+1/2'
10 '-z+1/2, -y+1/2, x+1/2'
11 '-y+1/2, -x+1/2, z+1/2'
12 '-x+1/2, -z+1/2, y+1/2'
13 '-z+1/2, y+1/2, x+1/2'
14 '-y+1/2, x+1/2, z+1/2'
15 '-x+1/2, z+1/2, y+1/2'
16 'z+1/2, -y+1/2, -x+1/2'
17 'y+1/2, -x+1/2, -z+1/2'
18 'x+1/2, -z+1/2, -y+1/2'
19 '-z+1/2, -y+1/2, -x+1/2'
20 '-y+1/2, -x+1/2, -z+1/2'
21 '-x+1/2, -z+1/2, -y+1/2'
22 'z+1/2, y+1/2, x+1/2'
23 'y+1/2, x+1/2, z+1/2'
24 'x+1/2, z+1/2, y+1/2'
25 'z, x, -y'
26 'y, z, -x'
27 'x, y, -z'
28 '-z, -x, y'
29 '-y, -z, x'
30 '-x, -y, z'
31 'z, -x, y'
32 'y, -z, x'
33 'x, -y, z'
34 '-z, x, -y'
35 '-y, z, -x'
36 '-x, y, -z'
37 '-z, x, y'
38 '-y, z, x'
39 '-x, y, z'
40 'z, -x, -y'
41 'y, -z, -x'
42 'x, -y, -z'
43 '-z, -x, -y'
44 '-y, -z, -x'
45 '-x, -y, -z'
46 'z, x, y'
47 'y, z, x'
48 'x, y, z'
loop_
_atom_type_symbol
_atom_type_oxidation_number
I0+ 0
Sn0+ 0
In0+ 0
Sn0+ 0
As0+ 0
loop_
_atom_site_label
_atom_site_type_symbol
_atom_site_symmetry_multiplicity
_atom_site_Wyckoff_symbol
_atom_site_fract_x
_atom_site_fract_y
_atom_site_fract_z
_atom_site_U_iso_or_equiv
_atom_site_occupancy
I1 I0+ 2 a 0. 0. 0. 0.0118(3) 1
I2 I0+ 6 d 0.25 0.5 0. 0.0190(3) 1
Sn1 Sn0+ 24 k 0. 0.3094(6) 0.1253(5) 0.0141(5) 0.613(11)
In1 In0+ 24 k 0. 0.321(2) 0.127(3) 0.032(5) 0.200(13)
Sn2 Sn0+ 24 k 0. 0.3264(6) 0.0492(13) 0.024(2) 0.094(4)
As1 As0+ 48 l 0.1968(15) 0.184(2) 0.183(3) 0.016(2) 0.33
As2 As0+ 24 k 0.987(2) 0.5 0.2671(7) 0.024(3) 0.2480(19)
loop_
_atom_site_aniso_label
_atom_site_aniso_type_symbol
_atom_site_aniso_U_11
_atom_site_aniso_U_22
_atom_site_aniso_U_33
_atom_site_aniso_U_12
_atom_site_aniso_U_13
_atom_site_aniso_U_23
I1 I0+ 0.0118(3) 0.0118(3) 0.0118(3) 0. 0. 0.
I2 I0+ 0.0127(4) 0.0221(3) 0.0221(3) 0. 0. 0.
Sn1 Sn0+ 0.0136(11) 0.0164(7) 0.0123(11) 0. 0. -0.0023(7)
In1 In0+ 0.022(5) 0.034(8) 0.042(9) 0. 0. 0.010(4)
Sn2 Sn0+ 0.025(3) 0.018(3) 0.028(5) 0. 0. -0.005(3)
As1 As0+ 0.013(2) 0.013(3) 0.021(5) 0.000(3) -0.009(4) 0.0030(16)
As2 As0+ 0.037(10) 0.0089(15) 0.025(5) 0. -0.016(4) 0.
#End of TTdata_423639-ICSD