
#(C) 2025 by FIZ Karlsruhe - Leibniz Institute for Information Infrastructure.  All rights reserved.
data_189848-ICSD
_database_code_ICSD 189848
_audit_creation_date 2014-02-01
_chemical_name_common
'Rubidium europium germanium indium (6.24/1.76/35.84/10.16)'
_chemical_formula_structural '(Rb6.24 Eu1.76) (Ge35.84 In10.16)'
_chemical_formula_sum 'Eu1.76 Ge35.84 In10.16 Rb6.24'
_chemical_name_structure_type K8Si46
_exptl_crystal_density_diffrn 5.61
_diffrn_ambient_temperature 200.
_citation_title

;
On the possibility for Rb- and Eu-cation ordering in type-I clathrates:
synthesis and homogeneity range of the novel compounds Rb8-x Eux (In, Ge)46 
(0.6 <=x<= 1.8)
;
loop_
_citation_id
_citation_journal_full
_citation_year
_citation_journal_volume
_citation_page_first
_citation_page_last
_citation_journal_id_ASTM
primary 'Acta Crystallographica, Section C: Crystal Structure Communications'
2013 69 1457 1461 ACSCEE
loop_
_citation_author_citation_id
_citation_author_name
primary 'Schaefer, Marion C.'
primary 'Bobev, Svilen'
_cell_length_a 11.0614(7)
_cell_length_b 11.0614(7)
_cell_length_c 11.0614(7)
_cell_angle_alpha 90.
_cell_angle_beta 90.
_cell_angle_gamma 90.
_cell_volume 1353.41
_cell_formula_units_Z 1
_space_group_name_H-M_alt 'P m -3 n'
_space_group_IT_number 223
loop_
_space_group_symop_id
_space_group_symop_operation_xyz
1 'z+1/2, -y+1/2, x+1/2'
2 'y+1/2, -x+1/2, z+1/2'
3 'x+1/2, -z+1/2, y+1/2'
4 '-z+1/2, y+1/2, -x+1/2'
5 '-y+1/2, x+1/2, -z+1/2'
6 '-x+1/2, z+1/2, -y+1/2'
7 'z+1/2, y+1/2, -x+1/2'
8 'y+1/2, x+1/2, -z+1/2'
9 'x+1/2, z+1/2, -y+1/2'
10 '-z+1/2, -y+1/2, x+1/2'
11 '-y+1/2, -x+1/2, z+1/2'
12 '-x+1/2, -z+1/2, y+1/2'
13 '-z+1/2, y+1/2, x+1/2'
14 '-y+1/2, x+1/2, z+1/2'
15 '-x+1/2, z+1/2, y+1/2'
16 'z+1/2, -y+1/2, -x+1/2'
17 'y+1/2, -x+1/2, -z+1/2'
18 'x+1/2, -z+1/2, -y+1/2'
19 '-z+1/2, -y+1/2, -x+1/2'
20 '-y+1/2, -x+1/2, -z+1/2'
21 '-x+1/2, -z+1/2, -y+1/2'
22 'z+1/2, y+1/2, x+1/2'
23 'y+1/2, x+1/2, z+1/2'
24 'x+1/2, z+1/2, y+1/2'
25 'z, x, -y'
26 'y, z, -x'
27 'x, y, -z'
28 '-z, -x, y'
29 '-y, -z, x'
30 '-x, -y, z'
31 'z, -x, y'
32 'y, -z, x'
33 'x, -y, z'
34 '-z, x, -y'
35 '-y, z, -x'
36 '-x, y, -z'
37 '-z, x, y'
38 '-y, z, x'
39 '-x, y, z'
40 'z, -x, -y'
41 'y, -z, -x'
42 'x, -y, -z'
43 '-z, -x, -y'
44 '-y, -z, -x'
45 '-x, -y, -z'
46 'z, x, y'
47 'y, z, x'
48 'x, y, z'
loop_
_atom_type_symbol
_atom_type_oxidation_number
Ge0+ 0
In0+ 0
Ge0+ 0
In0+ 0
Rb0+ 0
Eu0+ 0
Rb0+ 0
loop_
_atom_site_label
_atom_site_type_symbol
_atom_site_symmetry_multiplicity
_atom_site_Wyckoff_symbol
_atom_site_fract_x
_atom_site_fract_y
_atom_site_fract_z
_atom_site_U_iso_or_equiv
_atom_site_occupancy
Ge1 Ge0+ 24 k 0. 0.30048(6) 0.11409(6) 0.01085(18) 0.96
In1 In0+ 24 k 0. 0.30048(6) 0.11409(6) 0.01085(18) 0.04
Ge2 Ge0+ 16 i 0.18321(4) 0.18321(4) 0.18321(4) 0.01075(18) 0.8
In2 In0+ 16 i 0.18321(4) 0.18321(4) 0.18321(4) 0.01075(18) 0.2
In3 In0+ 6 c 0.25 0. 0.5 0.0112(2) 1
Rb1 Rb0+ 6 d 0.25 0.5 0. 0.0237(3) 1
Eu1 Eu0+ 2 a 0. 0. 0. 0.0182(3) 0.88
Rb2 Rb0+ 2 a 0. 0. 0. 0.0182(3) 0.12
loop_
_atom_site_aniso_label
_atom_site_aniso_type_symbol
_atom_site_aniso_U_11
_atom_site_aniso_U_22
_atom_site_aniso_U_33
_atom_site_aniso_U_12
_atom_site_aniso_U_13
_atom_site_aniso_U_23
Ge1 Ge0+ 0.0121(4) 0.0104(3) 0.0101(3) 0. 0. -0.0011(3)
In1 In0+ 0.0121(4) 0.0104(3) 0.0101(3) 0. 0. -0.0011(3)
Ge2 Ge0+ 0.01075(18) 0.01075(18) 0.01075(18) -0.00027(16) -0.00027(16)
-0.00027(16)
In2 In0+ 0.01075(18) 0.01075(18) 0.01075(18) -0.00027(16) -0.00027(16)
-0.00027(16)
In3 In0+ 0.0116(5) 0.0110(3) 0.0110(3) 0. 0. 0.
Rb1 Rb0+ 0.0160(7) 0.0275(5) 0.0275(5) 0. 0. 0.
Eu1 Eu0+ 0.0182(3) 0.0182(3) 0.0182(3) 0. 0. 0.
Rb2 Rb0+ 0.0182(3) 0.0182(3) 0.0182(3) 0. 0. 0.
#End of TTdata_189848-ICSD