
#(C) 2025 by FIZ Karlsruhe - Leibniz Institute for Information Infrastructure.  All rights reserved.
data_710091-ICSD
_database_code_ICSD 710091
_audit_creation_date 2014-02-01
_chemical_name_common 'octa-(barium, strontium) hexa-zinc tetraconta-germanide'
_chemical_formula_structural '(Ba7.56 Sr0.44) Zn6 Ge40'
_chemical_formula_sum 'Ba7.56 Ge40 Sr0.44 Zn6'
_chemical_name_structure_type K8Si46
_exptl_crystal_density_diffrn 5.8
_diffrn_ambient_temperature 293.
_citation_title

;
Crystal structure of octa(barium, strontium)hexazinc tetracontagermanide,
Ba7.56 Ge40 Sr0.44 Zn6
;
loop_
_citation_id
_citation_journal_full
_citation_year
_citation_journal_volume
_citation_page_first
_citation_page_last
_citation_journal_id_ASTM
primary 'Zeitschrift fuer Kristallographie - New Crystal Structures' 2013 228
443 444 ZKNSFT
loop_
_citation_author_citation_id
_citation_author_name
primary 'Qin-Xing Xie'
primary 'Reinhard Nesper'
_cell_length_a 10.7753(13)
_cell_length_b 10.7753(13)
_cell_length_c 10.7753(13)
_cell_angle_alpha 90.
_cell_angle_beta 90.
_cell_angle_gamma 90.
_cell_volume 1251.08
_cell_formula_units_Z 1
_space_group_name_H-M_alt 'P m -3 n'
_space_group_IT_number 223
loop_
_space_group_symop_id
_space_group_symop_operation_xyz
1 'z+1/2, -y+1/2, x+1/2'
2 'y+1/2, -x+1/2, z+1/2'
3 'x+1/2, -z+1/2, y+1/2'
4 '-z+1/2, y+1/2, -x+1/2'
5 '-y+1/2, x+1/2, -z+1/2'
6 '-x+1/2, z+1/2, -y+1/2'
7 'z+1/2, y+1/2, -x+1/2'
8 'y+1/2, x+1/2, -z+1/2'
9 'x+1/2, z+1/2, -y+1/2'
10 '-z+1/2, -y+1/2, x+1/2'
11 '-y+1/2, -x+1/2, z+1/2'
12 '-x+1/2, -z+1/2, y+1/2'
13 '-z+1/2, y+1/2, x+1/2'
14 '-y+1/2, x+1/2, z+1/2'
15 '-x+1/2, z+1/2, y+1/2'
16 'z+1/2, -y+1/2, -x+1/2'
17 'y+1/2, -x+1/2, -z+1/2'
18 'x+1/2, -z+1/2, -y+1/2'
19 '-z+1/2, -y+1/2, -x+1/2'
20 '-y+1/2, -x+1/2, -z+1/2'
21 '-x+1/2, -z+1/2, -y+1/2'
22 'z+1/2, y+1/2, x+1/2'
23 'y+1/2, x+1/2, z+1/2'
24 'x+1/2, z+1/2, y+1/2'
25 'z, x, -y'
26 'y, z, -x'
27 'x, y, -z'
28 '-z, -x, y'
29 '-y, -z, x'
30 '-x, -y, z'
31 'z, -x, y'
32 'y, -z, x'
33 'x, -y, z'
34 '-z, x, -y'
35 '-y, z, -x'
36 '-x, y, -z'
37 '-z, x, y'
38 '-y, z, x'
39 '-x, y, z'
40 'z, -x, -y'
41 'y, -z, -x'
42 'x, -y, -z'
43 '-z, -x, -y'
44 '-y, -z, -x'
45 '-x, -y, -z'
46 'z, x, y'
47 'y, z, x'
48 'x, y, z'
loop_
_atom_type_symbol
_atom_type_oxidation_number
Ba2+ 2
Sr2+ 2
Ge1- -0.7
Zn2+ 2
loop_
_atom_site_label
_atom_site_type_symbol
_atom_site_symmetry_multiplicity
_atom_site_Wyckoff_symbol
_atom_site_fract_x
_atom_site_fract_y
_atom_site_fract_z
_atom_site_U_iso_or_equiv
_atom_site_occupancy
Ba1 Ba2+ 6 d 0.25 0.5 0. 0.0474(3) 1
Ba2 Ba2+ 2 a 0. 0. 0. 0.0158(4) 0.782(15)
Sr1 Sr2+ 2 a 0. 0. 0. 0.0158(4) 0.218(15)
Ge1 Ge1- 24 k 0. 0.30921(5) 0.11756(5) 0.01513(16) 1
Ge2 Ge1- 16 i 0.18361(3) 0.18361(3) 0.18361(3) 0.01448(16) 1
Zn1 Zn2+ 6 c 0.25 0. 0.5 0.0151(3) 1
loop_
_atom_site_aniso_label
_atom_site_aniso_type_symbol
_atom_site_aniso_U_11
_atom_site_aniso_U_22
_atom_site_aniso_U_33
_atom_site_aniso_U_12
_atom_site_aniso_U_13
_atom_site_aniso_U_23
Ba1 Ba2+ 0.0246(5) 0.0589(4) 0.0589(4) 0. 0. 0.
Ba2 Ba2+ 0.0158(4) 0.0158(4) 0.0158(4) 0. 0. 0.
Sr1 Sr2+ 0.0158(4) 0.0158(4) 0.0158(4) 0. 0. 0.
Ge1 Ge1- 0.0157(3) 0.0146(3) 0.0151(3) 0. 0. -0.0008(2)
Ge2 Ge1- 0.01448(16) 0.01448(16) 0.01448(16) -0.00093(13) -0.00093(13)
-0.00093(13)
Zn1 Zn2+ 0.0167(6) 0.0143(4) 0.0143(4) 0. 0. 0.
#End of TTdata_710091-ICSD