
#(C) 2025 by FIZ Karlsruhe - Leibniz Institute for Information Infrastructure.  All rights reserved.
data_38203-ICSD
_database_code_ICSD 38203
_audit_creation_date 2022-08-01
_chemical_name_common 'Aluminium barium germanide (8.8/8/37.2)'
_chemical_formula_structural 'Al8.80 Ba8 Ge37.20'
_chemical_formula_sum 'Al8.8 Ba8 Ge37.2'
_chemical_name_structure_type K8Si46
_exptl_crystal_density_diffrn 5.31
_diffrn_ambient_temperature 293.
_citation_title

;
Investigating the chemical ordering in quaternary clathrate
Ba\(_8\)Al\(_x\)Ga\(_{16-x}\)Ge\(_{30}\)
;
loop_
_citation_id
_citation_journal_full
_citation_year
_citation_journal_volume
_citation_page_first
_citation_page_last
_citation_journal_id_ASTM
primary 'Inorganic Chemistry' 2021 60 16977 16985 INOCAJ
loop_
_citation_author_citation_id
_citation_author_name
primary 'Zhang, Yifei'
primary 'Brorsson, Joakim'
primary 'Kamiyama, Takashi'
primary 'Saito, Takashi'
primary 'Erhart, Paul'
primary 'Palmqvist, Anders E.C.'
_cell_length_a 10.80855(9)
_cell_length_b 10.80855(9)
_cell_length_c 10.80855(9)
_cell_angle_alpha 90
_cell_angle_beta 90
_cell_angle_gamma 90
_cell_volume 1262.72
_cell_formula_units_Z 1
_space_group_name_H-M_alt 'P m -3 n'
_space_group_IT_number 223
loop_
_space_group_symop_id
_space_group_symop_operation_xyz
1 'z+1/2, -y+1/2, x+1/2'
2 'y+1/2, -x+1/2, z+1/2'
3 'x+1/2, -z+1/2, y+1/2'
4 '-z+1/2, y+1/2, -x+1/2'
5 '-y+1/2, x+1/2, -z+1/2'
6 '-x+1/2, z+1/2, -y+1/2'
7 'z+1/2, y+1/2, -x+1/2'
8 'y+1/2, x+1/2, -z+1/2'
9 'x+1/2, z+1/2, -y+1/2'
10 '-z+1/2, -y+1/2, x+1/2'
11 '-y+1/2, -x+1/2, z+1/2'
12 '-x+1/2, -z+1/2, y+1/2'
13 '-z+1/2, y+1/2, x+1/2'
14 '-y+1/2, x+1/2, z+1/2'
15 '-x+1/2, z+1/2, y+1/2'
16 'z+1/2, -y+1/2, -x+1/2'
17 'y+1/2, -x+1/2, -z+1/2'
18 'x+1/2, -z+1/2, -y+1/2'
19 '-z+1/2, -y+1/2, -x+1/2'
20 '-y+1/2, -x+1/2, -z+1/2'
21 '-x+1/2, -z+1/2, -y+1/2'
22 'z+1/2, y+1/2, x+1/2'
23 'y+1/2, x+1/2, z+1/2'
24 'x+1/2, z+1/2, y+1/2'
25 'z, x, -y'
26 'y, z, -x'
27 'x, y, -z'
28 '-z, -x, y'
29 '-y, -z, x'
30 '-x, -y, z'
31 'z, -x, y'
32 'y, -z, x'
33 'x, -y, z'
34 '-z, x, -y'
35 '-y, z, -x'
36 '-x, y, -z'
37 '-z, x, y'
38 '-y, z, x'
39 '-x, y, z'
40 'z, -x, -y'
41 'y, -z, -x'
42 'x, -y, -z'
43 '-z, -x, -y'
44 '-y, -z, -x'
45 '-x, -y, -z'
46 'z, x, y'
47 'y, z, x'
48 'x, y, z'
loop_
_atom_type_symbol
_atom_type_oxidation_number
Ba0+ 0
Ge0+ 0
Al0+ 0
Ba0+ 0
loop_
_atom_site_label
_atom_site_type_symbol
_atom_site_symmetry_multiplicity
_atom_site_Wyckoff_symbol
_atom_site_fract_x
_atom_site_fract_y
_atom_site_fract_z
_atom_site_U_iso_or_equiv
_atom_site_occupancy
Ba1 Ba0+ 2 a 0. 0. 0. 0.0080(3) 1
Ge1 Ge0+ 6 c 0. 0.5 0.25 0.0067(6) 0.582(15)
Ge2 Ge0+ 16 i 0.18452(4) 0.18452(4) 0.18452(4) 0.0063(3) 0.848(11)
Ge3 Ge0+ 24 k 0. 0.30829(6) 0.11736(6) 0.0065(3) 0.840(11)
Al1 Al0+ 6 c 0. 0.5 0.25 0.0067(6) 0.42(2)
Al2 Al0+ 16 i 0.18452(4) 0.18452(4) 0.18452(4) 0.0063(3) 0.151(19)
Al3 Al0+ 24 k 0. 0.30829(6) 0.11736(6) 0.0065(3) 0.159(18)
Ba2 Ba0+ 6 d 0.25 0.5 0. 0.0419(4) 1
loop_
_atom_site_aniso_label
_atom_site_aniso_type_symbol
_atom_site_aniso_U_11
_atom_site_aniso_U_22
_atom_site_aniso_U_33
_atom_site_aniso_U_12
_atom_site_aniso_U_13
_atom_site_aniso_U_23
Ba1 Ba0+ 0.0080(3) 0.0080(3) 0.0080(3) 0. 0. 0.
Ge1 Ge0+ 0.0063(6) 0.0063(6) 0.0075(8) 0. 0. 0.
Ge2 Ge0+ 0.0063(3) 0.0063(3) 0.0063(3) -0.00096(15) -0.00096(15) -0.00096(15)
Ge3 Ge0+ 0.0070(3) 0.0057(3) 0.0067(3) 0. 0. -0.0013(2)
Al1 Al0+ 0.0063(6) 0.0063(6) 0.0075(8) 0. 0. 0.
Al2 Al0+ 0.0063(3) 0.0063(3) 0.0063(3) -0.00096(15) -0.00096(15) -0.00096(15)
Al3 Al0+ 0.0070(3) 0.0057(3) 0.0067(3) 0. 0. -0.0013(2)
Ba2 Ba0+ 0.0136(5) 0.0561(6) 0.0561(6) 0. 0. 0.
#End of TTdata_38203-ICSD