
#(C) 2025 by FIZ Karlsruhe - Leibniz Institute for Information Infrastructure.  All rights reserved.
data_162929-ICSD
_database_code_ICSD 162929
_audit_creation_date 2009-08-01
_chemical_name_common 'Sodium barium silicide (1.94/6.06/46)'
_chemical_formula_structural '(Na1.94 Ba0.06) Ba6 Si46'
_chemical_formula_sum 'Ba6.06 Na1.94 Si46'
_chemical_name_structure_type K8Si46
_exptl_crystal_density_diffrn 3.31
_citation_title

;
Synthesis of the intermetallic clathrate Na2 Ba6 Si46 by oxidation of Na2 Ba
Si4 with H Cl
;
loop_
_citation_id
_citation_journal_full
_citation_year
_citation_journal_volume
_citation_page_first
_citation_page_last
_citation_journal_id_ASTM
primary 'Science and Technology of Advanced Materials' 2007 8 410 415 STAMCV
loop_
_citation_author_citation_id
_citation_author_name
primary 'Boehme, B.'
primary 'Aydemir, U.'
primary 'Ormeci, A.'
primary 'Schnelle, W.'
primary 'Baitinger, M.'
primary "Grin', Yu. (Hrin', Yu."
primary ' Grin, Yu.'
primary ' Hrin, Yu.)'
_cell_length_a 10.281(1)
_cell_length_b 10.281(1)
_cell_length_c 10.281(1)
_cell_angle_alpha 90.
_cell_angle_beta 90.
_cell_angle_gamma 90.
_cell_volume 1086.69
_cell_formula_units_Z 1
_space_group_name_H-M_alt 'P m -3 n'
_space_group_IT_number 223
loop_
_space_group_symop_id
_space_group_symop_operation_xyz
1 'z+1/2, -y+1/2, x+1/2'
2 'y+1/2, -x+1/2, z+1/2'
3 'x+1/2, -z+1/2, y+1/2'
4 '-z+1/2, y+1/2, -x+1/2'
5 '-y+1/2, x+1/2, -z+1/2'
6 '-x+1/2, z+1/2, -y+1/2'
7 'z+1/2, y+1/2, -x+1/2'
8 'y+1/2, x+1/2, -z+1/2'
9 'x+1/2, z+1/2, -y+1/2'
10 '-z+1/2, -y+1/2, x+1/2'
11 '-y+1/2, -x+1/2, z+1/2'
12 '-x+1/2, -z+1/2, y+1/2'
13 '-z+1/2, y+1/2, x+1/2'
14 '-y+1/2, x+1/2, z+1/2'
15 '-x+1/2, z+1/2, y+1/2'
16 'z+1/2, -y+1/2, -x+1/2'
17 'y+1/2, -x+1/2, -z+1/2'
18 'x+1/2, -z+1/2, -y+1/2'
19 '-z+1/2, -y+1/2, -x+1/2'
20 '-y+1/2, -x+1/2, -z+1/2'
21 '-x+1/2, -z+1/2, -y+1/2'
22 'z+1/2, y+1/2, x+1/2'
23 'y+1/2, x+1/2, z+1/2'
24 'x+1/2, z+1/2, y+1/2'
25 'z, x, -y'
26 'y, z, -x'
27 'x, y, -z'
28 '-z, -x, y'
29 '-y, -z, x'
30 '-x, -y, z'
31 'z, -x, y'
32 'y, -z, x'
33 'x, -y, z'
34 '-z, x, -y'
35 '-y, z, -x'
36 '-x, y, -z'
37 '-z, x, y'
38 '-y, z, x'
39 '-x, y, z'
40 'z, -x, -y'
41 'y, -z, -x'
42 'x, -y, -z'
43 '-z, -x, -y'
44 '-y, -z, -x'
45 '-x, -y, -z'
46 'z, x, y'
47 'y, z, x'
48 'x, y, z'
loop_
_atom_type_symbol
_atom_type_oxidation_number
Na0+ 0
Ba0+ 0
Si0+ 0
loop_
_atom_site_label
_atom_site_type_symbol
_atom_site_symmetry_multiplicity
_atom_site_Wyckoff_symbol
_atom_site_fract_x
_atom_site_fract_y
_atom_site_fract_z
_atom_site_B_iso_or_equiv
_atom_site_occupancy
Na1 Na0+ 2 a 0 0 0 1.5(3) 0.970(6)
Ba1 Ba0+ 2 a 0 0 0 1.5(3) 0.030(6)
Ba2 Ba0+ 6 d 0.25 0.5 0 3.1(1) 1.
Si1 Si0+ 6 c 0.25 0 0.5 2.3(4) 1.
Si2 Si0+ 16 i 0.1850(4) 0.1850(4) 0.1850(4) 3.7(1) 1.
Si3 Si0+ 24 k 0 0.3060(5) 0.1215(6) 2.4(2) 1.
loop_
_atom_site_aniso_label
_atom_site_aniso_type_symbol
_atom_site_aniso_B_11
_atom_site_aniso_B_22
_atom_site_aniso_B_33
_atom_site_aniso_B_12
_atom_site_aniso_B_13
_atom_site_aniso_B_23
Na1 Na0+ 1.5(5) 1.5(5) 1.5(5) 0. 0. 0.
Ba1 Ba0+ 1.5(5) 1.5(5) 1.5(5) 0. 0. 0.
Ba2 Ba0+ 3.4(2) 2.9(1) 2.9(1) 0. 0. 0.
Si1 Si0+ 2.6(1) 2.2(5) 2.2(5) 0. 0. 0.
Si2 Si0+ 3.7(3) 3.7(3) 3.7(3) -0.9(3) -0.9(3) -0.9(3)
Si3 Si0+ 1.9(4) 2.0(4) 3.5(5) 0. 0. -0.4(4)
#End of TTdata_162929-ICSD