
#(C) 2025 by FIZ Karlsruhe - Leibniz Institute for Information Infrastructure.  All rights reserved.
data_240476-ICSD
_database_code_ICSD 240476
_audit_creation_date 2007-04-01
_chemical_name_common 'Barium aluminium silicide (8/14/31)'
_chemical_formula_structural
'Ba8 (Si2.63 Al3.28) (Si11.3 Al4.32) (Si16.9 Al6.48)'
_chemical_formula_sum 'Al14.08 Ba8 Si30.83'
_chemical_name_structure_type K8Si46
_exptl_crystal_density_diffrn 3.25
_citation_title 'Structure and Thermoelectric Characterization of Ba8 Al14 Si31'
loop_
_citation_id
_citation_journal_full
_citation_year
_citation_journal_volume
_citation_page_first
_citation_page_last
_citation_journal_id_ASTM
primary 'Inorganic Chemistry' 2006 45 9381 9386 INOCAJ
loop_
_citation_author_citation_id
_citation_author_name
primary 'Condron, C.L.'
primary 'Martin, J.'
primary 'Nolas, G.S.'
primary 'Piccoli, P.M.B.'
primary 'Schulz, A.J.'
primary 'Kauzlarich, S.M.'
_cell_length_a 10.625
_cell_length_b 10.625
_cell_length_c 10.625
_cell_angle_alpha 90.
_cell_angle_beta 90.
_cell_angle_gamma 90.
_cell_volume 1199.46
_cell_formula_units_Z 1
_space_group_name_H-M_alt 'P m -3 n'
_space_group_IT_number 223
loop_
_space_group_symop_id
_space_group_symop_operation_xyz
1 'z+1/2, -y+1/2, x+1/2'
2 'y+1/2, -x+1/2, z+1/2'
3 'x+1/2, -z+1/2, y+1/2'
4 '-z+1/2, y+1/2, -x+1/2'
5 '-y+1/2, x+1/2, -z+1/2'
6 '-x+1/2, z+1/2, -y+1/2'
7 'z+1/2, y+1/2, -x+1/2'
8 'y+1/2, x+1/2, -z+1/2'
9 'x+1/2, z+1/2, -y+1/2'
10 '-z+1/2, -y+1/2, x+1/2'
11 '-y+1/2, -x+1/2, z+1/2'
12 '-x+1/2, -z+1/2, y+1/2'
13 '-z+1/2, y+1/2, x+1/2'
14 '-y+1/2, x+1/2, z+1/2'
15 '-x+1/2, z+1/2, y+1/2'
16 'z+1/2, -y+1/2, -x+1/2'
17 'y+1/2, -x+1/2, -z+1/2'
18 'x+1/2, -z+1/2, -y+1/2'
19 '-z+1/2, -y+1/2, -x+1/2'
20 '-y+1/2, -x+1/2, -z+1/2'
21 '-x+1/2, -z+1/2, -y+1/2'
22 'z+1/2, y+1/2, x+1/2'
23 'y+1/2, x+1/2, z+1/2'
24 'x+1/2, z+1/2, y+1/2'
25 'z, x, -y'
26 'y, z, -x'
27 'x, y, -z'
28 '-z, -x, y'
29 '-y, -z, x'
30 '-x, -y, z'
31 'z, -x, y'
32 'y, -z, x'
33 'x, -y, z'
34 '-z, x, -y'
35 '-y, z, -x'
36 '-x, y, -z'
37 '-z, x, y'
38 '-y, z, x'
39 '-x, y, z'
40 'z, -x, -y'
41 'y, -z, -x'
42 'x, -y, -z'
43 '-z, -x, -y'
44 '-y, -z, -x'
45 '-x, -y, -z'
46 'z, x, y'
47 'y, z, x'
48 'x, y, z'
loop_
_atom_type_symbol
_atom_type_oxidation_number
Ba0+ 0
Si0+ 0
Al0+ 0
loop_
_atom_site_label
_atom_site_type_symbol
_atom_site_symmetry_multiplicity
_atom_site_Wyckoff_symbol
_atom_site_fract_x
_atom_site_fract_y
_atom_site_fract_z
_atom_site_U_iso_or_equiv
_atom_site_occupancy
Ba1 Ba0+ 2 a 0. 0. 0. 0.01561 1.
Ba2 Ba0+ 6 d 0. 0.25 0.5 0.03359 1.
Si1 Si0+ 6 c 0.25 0. 0.5 0.01436 0.438
Si2 Si0+ 16 i 0.18515(8) 0.18515(8) 0.18515(8) 0.01412 0.704
Si3 Si0+ 24 k 0.11787(13) 0. 0.30543(12) 0.01287 0.704
Al1 Al0+ 6 c 0.25 0. 0.5 0.01436 0.547
Al2 Al0+ 16 i 0.18515(8) 0.18515(8) 0.18515(8) 0.01412 0.27
Al3 Al0+ 24 k 0.11787(13) 0. 0.30543(12) 0.01287 0.27
loop_
_atom_site_aniso_label
_atom_site_aniso_type_symbol
_atom_site_aniso_U_11
_atom_site_aniso_U_22
_atom_site_aniso_U_33
_atom_site_aniso_U_12
_atom_site_aniso_U_13
_atom_site_aniso_U_23
Ba1 Ba0+ 0.0156(10) 0.0156(10) 0.0156(10) 0. 0. 0.
Ba2 Ba0+ 0.0405(13) 0.0198(16) 0.0405(13) 0. 0. 0.
Si1 Si0+ 0.0161(19) 0.0135(13) 0.0135(13) 0. 0. 0.
Si2 Si0+ 0.0141(5) 0.0141(5) 0.0141(5) -0.0015(4) -0.0015(4) -0.0015(4)
Si3 Si0+ 0.0143(8) 0.0120(8) 0.0123(8) 0. -0.0008(7) 0.
Al1 Al0+ 0.0161(19) 0.0135(13) 0.0135(13) 0. 0. 0.
Al2 Al0+ 0.0141(5) 0.0141(5) 0.0141(5) -0.0015(4) -0.0015(4) -0.0015(4)
Al3 Al0+ 0.0143(8) 0.0120(8) 0.0123(8) 0. -0.0008(7) 0.
#End of TTdata_240476-ICSD