
#(C) 2025 by FIZ Karlsruhe - Leibniz Institute for Information Infrastructure.  All rights reserved.
data_429310-ICSD
_database_code_ICSD 429310
_audit_creation_date 2015-08-01
_chemical_name_common 'Rubidium zinc silicide (7.86/3.63/42.37)'
_chemical_formula_structural 'Rb7.86 Zn3.63 Si42.37'
_chemical_formula_sum 'Rb7.86 Si42.37 Zn3.63'
_chemical_name_structure_type K8Si46
_exptl_crystal_density_diffrn 3.09
_diffrn_ambient_temperature 296.
_citation_title

;
Si-based clathrates with partial substitution by Zn and Ga: K8 Zn3.5 Si42.5,
Rb7.9 Zn3.6 Si42.4, and Cs8-x Ga8-y Si38+y
;
loop_
_citation_id
_citation_journal_full
_citation_year
_citation_journal_volume
_citation_page_first
_citation_page_last
_citation_journal_id_ASTM
primary 'Zeitschrift fuer Anorganische und Allgemeine Chemie' 2015 641 1435 1443
ZAACAB
loop_
_citation_author_citation_id
_citation_author_name
primary 'Baran, Volodymyr'
primary 'Faessler, Thomas F.'
_cell_length_a 10.40671(7)
_cell_length_b 10.40671(7)
_cell_length_c 10.40671(7)
_cell_angle_alpha 90.
_cell_angle_beta 90.
_cell_angle_gamma 90.
_cell_volume 1127.04
_cell_formula_units_Z 1
_space_group_name_H-M_alt 'P m -3 n'
_space_group_IT_number 223
loop_
_space_group_symop_id
_space_group_symop_operation_xyz
1 'z+1/2, -y+1/2, x+1/2'
2 'y+1/2, -x+1/2, z+1/2'
3 'x+1/2, -z+1/2, y+1/2'
4 '-z+1/2, y+1/2, -x+1/2'
5 '-y+1/2, x+1/2, -z+1/2'
6 '-x+1/2, z+1/2, -y+1/2'
7 'z+1/2, y+1/2, -x+1/2'
8 'y+1/2, x+1/2, -z+1/2'
9 'x+1/2, z+1/2, -y+1/2'
10 '-z+1/2, -y+1/2, x+1/2'
11 '-y+1/2, -x+1/2, z+1/2'
12 '-x+1/2, -z+1/2, y+1/2'
13 '-z+1/2, y+1/2, x+1/2'
14 '-y+1/2, x+1/2, z+1/2'
15 '-x+1/2, z+1/2, y+1/2'
16 'z+1/2, -y+1/2, -x+1/2'
17 'y+1/2, -x+1/2, -z+1/2'
18 'x+1/2, -z+1/2, -y+1/2'
19 '-z+1/2, -y+1/2, -x+1/2'
20 '-y+1/2, -x+1/2, -z+1/2'
21 '-x+1/2, -z+1/2, -y+1/2'
22 'z+1/2, y+1/2, x+1/2'
23 'y+1/2, x+1/2, z+1/2'
24 'x+1/2, z+1/2, y+1/2'
25 'z, x, -y'
26 'y, z, -x'
27 'x, y, -z'
28 '-z, -x, y'
29 '-y, -z, x'
30 '-x, -y, z'
31 'z, -x, y'
32 'y, -z, x'
33 'x, -y, z'
34 '-z, x, -y'
35 '-y, z, -x'
36 '-x, y, -z'
37 '-z, x, y'
38 '-y, z, x'
39 '-x, y, z'
40 'z, -x, -y'
41 'y, -z, -x'
42 'x, -y, -z'
43 '-z, -x, -y'
44 '-y, -z, -x'
45 '-x, -y, -z'
46 'z, x, y'
47 'y, z, x'
48 'x, y, z'
loop_
_atom_type_symbol
_atom_type_oxidation_number
Rb0+ 0
Si0+ 0
Zn0+ 0
Si0+ 0
Zn0+ 0
loop_
_atom_site_label
_atom_site_type_symbol
_atom_site_symmetry_multiplicity
_atom_site_Wyckoff_symbol
_atom_site_fract_x
_atom_site_fract_y
_atom_site_fract_z
_atom_site_U_iso_or_equiv
_atom_site_occupancy
Rb1 Rb0+ 2 a 0. 0. 0. 0.00844(6) 0.9312(17)
Rb2 Rb0+ 6 d 0.25 0.5 0. 0.01886(5) 1
Si1 Si0+ 6 c 0.25 0. 0.5 0.00804(7) 0.555(2)
Zn1 Zn0+ 6 c 0.25 0. 0.5 0.00804(7) 0.445(2)
Si2 Si0+ 16 i 0.184262(13) 0.184262(13) 0.184262(13) 0.00695(4) 1
Si3 Si0+ 24 k 0. 0.305739(18) 0.118304(18) 0.00740(4) 0.9600(11)
Zn2 Zn0+ 24 k 0. 0.305739(18) 0.118304(18) 0.00740(4) 0.0400(11)
loop_
_atom_site_aniso_label
_atom_site_aniso_type_symbol
_atom_site_aniso_U_11
_atom_site_aniso_U_22
_atom_site_aniso_U_33
_atom_site_aniso_U_12
_atom_site_aniso_U_13
_atom_site_aniso_U_23
Rb1 Rb0+ 0.00844(6) 0.00844(6) 0.00844(6) 0. 0. 0.
Rb2 Rb0+ 0.01293(7) 0.02183(6) 0.02183(6) 0. 0. 0.
Si1 Si0+ 0.00926(11) 0.00743(8) 0.00743(8) 0. 0. 0.
Zn1 Zn0+ 0.00926(11) 0.00743(8) 0.00743(8) 0. 0. 0.
Si2 Si0+ 0.00695(4) 0.00695(4) 0.00695(4) -0.00025(4) -0.00025(4) -0.00025(4)
Si3 Si0+ 0.00715(8) 0.00742(8) 0.00762(8) 0. 0. -0.00011(6)
Zn2 Zn0+ 0.00715(8) 0.00742(8) 0.00762(8) 0. 0. -0.00011(6)
#End of TTdata_429310-ICSD