
#(C) 2025 by FIZ Karlsruhe - Leibniz Institute for Information Infrastructure.  All rights reserved.
data_170295-ICSD
_database_code_ICSD 170295
_audit_creation_date 2006-04-01
_chemical_name_common 'Tin phosphide bromide (1.5/1.23/0.5)'
_chemical_formula_structural 'Sn1.5 P1.23 Br0.5'
_chemical_formula_sum 'Br0.5 P1.23 Sn1.5'
_chemical_name_structure_type K8Si46
_exptl_crystal_density_diffrn 5.39
_diffrn_ambient_temperature 243.
_citation_title

;
Unusually chemical compressibility of normally rigid type-I clathrate
framework: synthesis and structural study of Sn24 P19.3 Br() I(8-x) solid
solution, the perspective thermoelectric material
;
loop_
_citation_id
_citation_journal_full
_citation_year
_citation_journal_volume
_citation_page_first
_citation_page_last
_citation_journal_id_ASTM
primary 'Inorganic Chemistry' 2004 43 3230 3236 INOCAJ
loop_
_citation_author_citation_id
_citation_author_name
primary 'Kovnir, K.A.'
primary 'Zaikina, J.V.'
primary 'Reshetova, L.N.'
primary 'Olenev, A.V.'
primary 'Dikarev, E.V.'
primary 'Shevelkov, A.V.'
_cell_length_a 10.8098(7)
_cell_length_b 10.8098(7)
_cell_length_c 10.8098(7)
_cell_angle_alpha 90.
_cell_angle_beta 90.
_cell_angle_gamma 90.
_cell_volume 1263.14
_cell_formula_units_Z 16
_space_group_name_H-M_alt 'P m -3 n'
_space_group_IT_number 223
loop_
_space_group_symop_id
_space_group_symop_operation_xyz
1 'z+1/2, -y+1/2, x+1/2'
2 'y+1/2, -x+1/2, z+1/2'
3 'x+1/2, -z+1/2, y+1/2'
4 '-z+1/2, y+1/2, -x+1/2'
5 '-y+1/2, x+1/2, -z+1/2'
6 '-x+1/2, z+1/2, -y+1/2'
7 'z+1/2, y+1/2, -x+1/2'
8 'y+1/2, x+1/2, -z+1/2'
9 'x+1/2, z+1/2, -y+1/2'
10 '-z+1/2, -y+1/2, x+1/2'
11 '-y+1/2, -x+1/2, z+1/2'
12 '-x+1/2, -z+1/2, y+1/2'
13 '-z+1/2, y+1/2, x+1/2'
14 '-y+1/2, x+1/2, z+1/2'
15 '-x+1/2, z+1/2, y+1/2'
16 'z+1/2, -y+1/2, -x+1/2'
17 'y+1/2, -x+1/2, -z+1/2'
18 'x+1/2, -z+1/2, -y+1/2'
19 '-z+1/2, -y+1/2, -x+1/2'
20 '-y+1/2, -x+1/2, -z+1/2'
21 '-x+1/2, -z+1/2, -y+1/2'
22 'z+1/2, y+1/2, x+1/2'
23 'y+1/2, x+1/2, z+1/2'
24 'x+1/2, z+1/2, y+1/2'
25 'z, x, -y'
26 'y, z, -x'
27 'x, y, -z'
28 '-z, -x, y'
29 '-y, -z, x'
30 '-x, -y, z'
31 'z, -x, y'
32 'y, -z, x'
33 'x, -y, z'
34 '-z, x, -y'
35 '-y, z, -x'
36 '-x, y, -z'
37 '-z, x, y'
38 '-y, z, x'
39 '-x, y, z'
40 'z, -x, -y'
41 'y, -z, -x'
42 'x, -y, -z'
43 '-z, -x, -y'
44 '-y, -z, -x'
45 '-x, -y, -z'
46 'z, x, y'
47 'y, z, x'
48 'x, y, z'
loop_
_atom_type_symbol
_atom_type_oxidation_number
Br0+ 0
Sn0+ 0
P0+ 0
loop_
_atom_site_label
_atom_site_type_symbol
_atom_site_symmetry_multiplicity
_atom_site_Wyckoff_symbol
_atom_site_fract_x
_atom_site_fract_y
_atom_site_fract_z
_atom_site_U_iso_or_equiv
_atom_site_occupancy
Br1 Br0+ 2 a 0. 0. 0. 0.0175(9) 1
Br2 Br0+ 6 d 0.5 0. 0.25 0.0248(6) 1
Sn1 Sn0+ 24 k 0.3087(5) 0.1148(6) 0. 0.0156(8) 0.594(16)
Sn2 Sn0+ 24 k 0.3461(8) 0.1519(6) 0. 0.0123(12) 0.406(16)
P1 P0+ 16 i 0.19166(17) 0.19166(17) 0.19166(17) 0.0087(6) 1
P2 P0+ 6 c 0.5 0.25 0. 0.013(2) 0.594(16)
loop_
_atom_site_aniso_label
_atom_site_aniso_type_symbol
_atom_site_aniso_U_11
_atom_site_aniso_U_22
_atom_site_aniso_U_33
_atom_site_aniso_U_12
_atom_site_aniso_U_13
_atom_site_aniso_U_23
Br1 Br0+ 0.0175(9) 0.0175(9) 0.0175(9) 0. 0. 0.
Br2 Br0+ 0.0289(9) 0.0289(9) 0.0164(13) 0. 0. 0.
Sn1 Sn0+ 0.0139(12) 0.0217(16) 0.0114(7) -0.0025(12) 0. 0.
Sn2 Sn0+ 0.016(2) 0.0100(18) 0.0107(11) -0.0040(16) 0. 0.
P1 P0+ 0.0087(6) 0.0087(6) 0.0087(6) -0.0011(7) -0.0011(7) -0.0011(7)
P2 P0+ 0.012(3) 0.013(5) 0.012(3) 0. 0. 0.
#End of TTdata_170295-ICSD