
#(C) 2025 by FIZ Karlsruhe - Leibniz Institute for Information Infrastructure.  All rights reserved.
data_253318-ICSD
_database_code_ICSD 253318
_audit_creation_date 2017-08-01
_chemical_name_common 'Cesium sodium gallium germanium (6/2/8/38)'
_chemical_formula_structural 'Cs6 Na2 Ga8 Ge38'
_chemical_formula_sum 'Cs6 Ga8 Ge38 Na2'
_chemical_name_structure_type K8Si46
_exptl_crystal_density_diffrn 5.49
_citation_title

;
Synthesis and structures of type-I clathrates: Rb6 Na2 Ge44.89(1), Cs6 Na2 Zn4
Ge42 and Cs6.40(1) Na1.60(1) Ga8 Ge38
;
loop_
_citation_id
_citation_journal_full
_citation_year
_citation_journal_volume
_citation_page_first
_citation_page_last
_citation_journal_id_ASTM
primary 'Journal of Solid State Chemistry' 2016 242 155 161 JSSCBI
loop_
_citation_author_citation_id
_citation_author_name
primary 'Zhang, Hui'
primary 'Mu, Gang'
primary 'Huang, Fuqiang'
primary 'Xie, Xiaoming'
_cell_length_a 10.7973
_cell_length_b 10.7973
_cell_length_c 10.7973
_cell_angle_alpha 90.
_cell_angle_beta 90.
_cell_angle_gamma 90.
_cell_volume 1258.76
_cell_formula_units_Z 1
_space_group_name_H-M_alt 'P m -3'
_space_group_IT_number 200
loop_
_space_group_symop_id
_space_group_symop_operation_xyz
1 '-z, x, y'
2 'z, x, -y'
3 'z, -x, y'
4 '-z, -x, -y'
5 'y, -z, x'
6 '-y, z, x'
7 'y, z, -x'
8 '-y, -z, -x'
9 'x, y, -z'
10 'x, -y, z'
11 '-x, y, z'
12 '-x, -y, -z'
13 'z, -x, -y'
14 '-z, -x, y'
15 '-z, x, -y'
16 'z, x, y'
17 '-y, z, -x'
18 'y, -z, -x'
19 '-y, -z, x'
20 'y, z, x'
21 '-x, -y, z'
22 '-x, y, -z'
23 'x, -y, -z'
24 'x, y, z'
loop_
_atom_type_symbol
_atom_type_oxidation_number
Na0+ 0
Cs0+ 0
Ge0+ 0
Ga0+ 0
Ge0+ 0
loop_
_atom_site_label
_atom_site_type_symbol
_atom_site_symmetry_multiplicity
_atom_site_Wyckoff_symbol
_atom_site_fract_x
_atom_site_fract_y
_atom_site_fract_z
_atom_site_U_iso_or_equiv
_atom_site_occupancy
Na1 Na0+ 1 a 0. 0. 0. 0.02409 1.
Na2 Na0+ 1 b 0.5 0.5 0.5 0.02409 1.
Cs1 Cs0+ 6 g 0.25 0.5 -0. 0.0134 1.
Ge1 Ge0+ 6 f 0.25 0. 0.5 0.00605 1.
Ga1 Ga0+ 8 i 0.18373 0.18373 0.18373 0.00347 1.
Ge2 Ge0+ 8 i 0.68373 0.68373 0.31627 0.00347 1.
Ge3 Ge0+ 12 j -0. 0.30617 0.11884 0.00399 1.
Ge4 Ge0+ 12 k 0.80617 0.5 0.38116 0.00399 1.
#End of TTdata_253318-ICSD