
#(C) 2025 by FIZ Karlsruhe - Leibniz Institute for Information Infrastructure.  All rights reserved.
data_416531-ICSD
_database_code_ICSD 416531
_audit_creation_date 2008-02-01
_chemical_name_common 'Tin arsenic iodine (20.6/22/8)'
_chemical_formula_structural 'Sn20.60 As22 I8'
_chemical_formula_sum 'As22 I8 Sn20.6'
_chemical_name_structure_type K8Si46
_exptl_crystal_density_diffrn 6.22
_diffrn_ambient_temperature 295.
_citation_title

;
Sn20.5 [ ]3.5 As22 I8: a largely disordered cationic clathrate with a new type
of superstructure and abnormally low thermal conductivity
;
loop_
_citation_id
_citation_journal_full
_citation_year
_citation_journal_volume
_citation_page_first
_citation_page_last
_citation_journal_id_ASTM
primary 'Chemistry - A European Journal' 2007 13 5090 5099 CEUJED
loop_
_citation_author_citation_id
_citation_author_name
primary 'Zaikina, J.V.'
primary 'Kovnir, K.A.'
primary 'Sobolev, A.V.'
primary 'Presniakov, I.A.'
primary "Prots', Yu. (Prots, Yu.)"
primary 'Baitinger, M.'
primary 'Schnelle, W.'
primary 'Olenev, A.V.'
primary 'Lebedev, O.I.'
primary 'van Tendeloo, G.'
primary "Grin', Yu. (Hrin', Yu."
primary ' Grin, Yu.'
primary ' Hrin, Yu.)'
primary 'Shevelkov, A.V.'
_cell_length_a 11.088(2)
_cell_length_b 11.088(2)
_cell_length_c 11.088(2)
_cell_angle_alpha 90.
_cell_angle_beta 90.
_cell_angle_gamma 90.
_cell_volume 1363.2
_cell_formula_units_Z 1
_space_group_name_H-M_alt 'P m -3 n'
_space_group_IT_number 223
loop_
_space_group_symop_id
_space_group_symop_operation_xyz
1 'z+1/2, -y+1/2, x+1/2'
2 'y+1/2, -x+1/2, z+1/2'
3 'x+1/2, -z+1/2, y+1/2'
4 '-z+1/2, y+1/2, -x+1/2'
5 '-y+1/2, x+1/2, -z+1/2'
6 '-x+1/2, z+1/2, -y+1/2'
7 'z+1/2, y+1/2, -x+1/2'
8 'y+1/2, x+1/2, -z+1/2'
9 'x+1/2, z+1/2, -y+1/2'
10 '-z+1/2, -y+1/2, x+1/2'
11 '-y+1/2, -x+1/2, z+1/2'
12 '-x+1/2, -z+1/2, y+1/2'
13 '-z+1/2, y+1/2, x+1/2'
14 '-y+1/2, x+1/2, z+1/2'
15 '-x+1/2, z+1/2, y+1/2'
16 'z+1/2, -y+1/2, -x+1/2'
17 'y+1/2, -x+1/2, -z+1/2'
18 'x+1/2, -z+1/2, -y+1/2'
19 '-z+1/2, -y+1/2, -x+1/2'
20 '-y+1/2, -x+1/2, -z+1/2'
21 '-x+1/2, -z+1/2, -y+1/2'
22 'z+1/2, y+1/2, x+1/2'
23 'y+1/2, x+1/2, z+1/2'
24 'x+1/2, z+1/2, y+1/2'
25 'z, x, -y'
26 'y, z, -x'
27 'x, y, -z'
28 '-z, -x, y'
29 '-y, -z, x'
30 '-x, -y, z'
31 'z, -x, y'
32 'y, -z, x'
33 'x, -y, z'
34 '-z, x, -y'
35 '-y, z, -x'
36 '-x, y, -z'
37 '-z, x, y'
38 '-y, z, x'
39 '-x, y, z'
40 'z, -x, -y'
41 'y, -z, -x'
42 'x, -y, -z'
43 '-z, -x, -y'
44 '-y, -z, -x'
45 '-x, -y, -z'
46 'z, x, y'
47 'y, z, x'
48 'x, y, z'
loop_
_atom_type_symbol
_atom_type_oxidation_number
I0+ 0
Sn0+ 0
As0+ 0
loop_
_atom_site_label
_atom_site_type_symbol
_atom_site_symmetry_multiplicity
_atom_site_Wyckoff_symbol
_atom_site_fract_x
_atom_site_fract_y
_atom_site_fract_z
_atom_site_U_iso_or_equiv
_atom_site_occupancy
I1 I0+ 2 a 0. 0. 0. 0.0146(6) 1
I2 I0+ 6 d 0. -0.25 0.5 0.0210(4) 1
Sn1 Sn0+ 24 k 0.31106(14) 0.12771(15) 0. 0.0196(4) 0.714(8)
Sn2 Sn0+ 24 k 0. 0.3256(8) 0.0538(10) 0.029(3) 0.144(6)
As1 As0+ 48 l 0.195(5) 0.177(2) 0.190(7) 0.021(3) 0.33334
As2 As0+ 24 k 0.4798(10) 0.2310(7) 0. 0.022(3) 0.25
loop_
_atom_site_aniso_label
_atom_site_aniso_type_symbol
_atom_site_aniso_U_11
_atom_site_aniso_U_22
_atom_site_aniso_U_33
_atom_site_aniso_U_12
_atom_site_aniso_U_13
_atom_site_aniso_U_23
I1 I0+ 0.0146(6) 0.0146(6) 0.0146(6) 0. 0. 0.
I2 I0+ 0.0236(6) 0.0159(8) 0.0236(6) 0. 0. 0.
Sn1 Sn0+ 0.0237(7) 0.0158(8) 0.0192(7) -0.0015(5) 0. 0.
Sn2 Sn0+ 0.021(4) 0.026(4) 0.041(6) 0. 0. 0.003(3)
As1 As0+ 0.015(9) 0.012(3) 0.035(15) 0.003(6) -0.015(3) 0.002(6)
As2 As0+ 0.028(7) 0.023(5) 0.016(3) 0.008(3) 0. 0.
#End of TTdata_416531-ICSD