
#(C) 2025 by FIZ Karlsruhe - Leibniz Institute for Information Infrastructure.  All rights reserved.
data_248893-ICSD
_database_code_ICSD 248893
_audit_creation_date 2015-02-01
_chemical_name_common
'Silicon phosphorus telluride bromide (32.46/13.54/6.01/1.52)'
_chemical_formula_structural '(Si26 P20) Te6.01 Br1.45'
_chemical_formula_sum 'Br1.45 P20 Si26 Te6.01'
_chemical_name_structure_type K8Si46
_exptl_crystal_density_diffrn 3.72
_diffrn_ambient_temperature 298.
_citation_title

;
Homo- and heterovalent substitutions in the new clathrates I Si30 P16 Te8-x
Sex and Si30+x P16-x Te8-x Brx: synthesis, crystal structure, and
thermoelectric properties
;
loop_
_citation_id
_citation_journal_full
_citation_year
_citation_journal_volume
_citation_page_first
_citation_page_last
_citation_journal_id_ASTM
primary 'Inorganic Chemistry' 2012 51 11396 11405 INOCAJ
loop_
_citation_author_citation_id
_citation_author_name
primary 'Abramchuk, Nikolay S.'
primary 'Carrillo-Cabrera, Wilder'
primary 'Veremchuk, Igor'
primary 'Oeschler, Niels'
primary 'Olenev, Andrei V.'
primary 'Prots, Yurii'
primary 'Burkhardt, Ulrich'
primary 'Dikarev, Evgeny V.'
primary 'Grin, Juri'
primary 'Shevelkov, Andrei V.'
_cell_length_a 9.9863(4)
_cell_length_b 9.9863(4)
_cell_length_c 9.9863(4)
_cell_angle_alpha 90.
_cell_angle_beta 90.
_cell_angle_gamma 90.
_cell_volume 995.9
_cell_formula_units_Z 1
_space_group_name_H-M_alt 'P m -3'
_space_group_IT_number 200
loop_
_space_group_symop_id
_space_group_symop_operation_xyz
1 '-z, x, y'
2 'z, x, -y'
3 'z, -x, y'
4 '-z, -x, -y'
5 'y, -z, x'
6 '-y, z, x'
7 'y, z, -x'
8 '-y, -z, -x'
9 'x, y, -z'
10 'x, -y, z'
11 '-x, y, z'
12 '-x, -y, -z'
13 'z, -x, -y'
14 '-z, -x, y'
15 '-z, x, -y'
16 'z, x, y'
17 '-y, z, -x'
18 'y, -z, -x'
19 '-y, -z, x'
20 'y, z, x'
21 '-x, -y, z'
22 '-x, y, -z'
23 'x, -y, -z'
24 'x, y, z'
loop_
_atom_type_symbol
_atom_type_oxidation_number
Te0+ 0
Br0+ 0
Te0+ 0
Si0+ 0
P0+ 0
Si0+ 0
loop_
_atom_site_label
_atom_site_type_symbol
_atom_site_symmetry_multiplicity
_atom_site_Wyckoff_symbol
_atom_site_fract_x
_atom_site_fract_y
_atom_site_fract_z
_atom_site_U_iso_or_equiv
_atom_site_occupancy
Te1 Te0+ 6 f 0.26055(8) 0. 0.5 0.0195(2) 0.915(17)
Br1 Br0+ 6 f 0.26055(8) 0. 0.5 0.0195(2) 0.085(17)
Br2 Br0+ 1 b 0.5 0.5 0.5 0.0089(11) 0.494(9)
Br3 Br0+ 1 a 0. 0. 0. 0.0118(4) 0.45(2)
Te2 Te0+ 1 a 0. 0. 0. 0.0118(4) 0.55(2)
Si1 Si0+ 8 i 0.18457(12) 0.18457(12) 0.18457(12) 0.0103(5) 1
P1 P0+ 8 i 0.31676(11) 0.31676(11) 0.31676(11) 0.0105(4) 1
P2 P0+ 12 j 0. 0.11740(17) 0.30895(18) 0.0146(4) 1
Si2 Si0+ 12 k 0.19067(17) 0.38313(17) 0.5 0.0123(4) 1
Si3 Si0+ 6 g 0. 0.2478(3) 0.5 0.0097(5) 1
loop_
_atom_site_aniso_label
_atom_site_aniso_type_symbol
_atom_site_aniso_U_11
_atom_site_aniso_U_22
_atom_site_aniso_U_33
_atom_site_aniso_U_12
_atom_site_aniso_U_13
_atom_site_aniso_U_23
Te1 Te0+ 0.0177(4) 0.0190(4) 0.0218(4) 0. 0. 0.
Br1 Br0+ 0.0177(4) 0.0190(4) 0.0218(4) 0. 0. 0.
Br2 Br0+ 0.0089(11) 0.0089(11) 0.0089(11) 0. 0. 0.
Br3 Br0+ 0.0118(4) 0.0118(4) 0.0118(4) 0. 0. 0.
Te2 Te0+ 0.0118(4) 0.0118(4) 0.0118(4) 0. 0. 0.
Si1 Si0+ 0.0103(5) 0.0103(5) 0.0103(5) 0.0001(4) 0.0001(4) 0.0001(4)
P1 P0+ 0.0105(4) 0.0105(4) 0.0105(4) 0.0001(3) 0.0001(3) 0.0001(3)
P2 P0+ 0.0145(8) 0.0143(8) 0.0151(9) 0. 0. -0.0010(6)
Si2 Si0+ 0.0127(8) 0.0113(8) 0.0129(9) -0.0015(6) 0. 0.
Si3 Si0+ 0.0092(12) 0.0106(10) 0.0093(12) 0. 0. 0.
#End of TTdata_248893-ICSD