
#(C) 2025 by FIZ Karlsruhe - Leibniz Institute for Information Infrastructure.  All rights reserved.
data_237925-ICSD
_database_code_ICSD 237925
_audit_creation_date 2015-08-01
_chemical_name_common 'Copper potassium stannide (2.77/8/43.23)'
_chemical_formula_structural 'Cu2.77 K8 Sn43.23'
_chemical_formula_sum 'Cu2.77 K8 Sn43.23'
_chemical_name_structure_type K8Si46
_exptl_crystal_density_diffrn 5.3
_diffrn_ambient_temperature 200.
_citation_title

;
Copper and zinc substitutions in clathrates of tin: Synthesis, structural
characterization, and physical properties of A8 Cu 2.67 Sn 43.33 and A8 Zn4 Sn
42 (A = K, Rb, Cs) with the type-I structure
;
loop_
_citation_id
_citation_journal_full
_citation_year
_citation_journal_volume
_citation_page_first
_citation_page_last
_citation_journal_id_ASTM
primary 'Chemistry of Materials' 2013 25 3737 3744 CMATEX
loop_
_citation_author_citation_id
_citation_author_name
primary 'Schaefer, Marion C.'
primary 'Bobev, Svilen'
_cell_length_a 12.0769(3)
_cell_length_b 12.0769(3)
_cell_length_c 12.0769(3)
_cell_angle_alpha 90.
_cell_angle_beta 90.
_cell_angle_gamma 90.
_cell_volume 1761.43
_cell_formula_units_Z 1
_space_group_name_H-M_alt 'P m -3 n'
_space_group_IT_number 223
loop_
_space_group_symop_id
_space_group_symop_operation_xyz
1 'z+1/2, -y+1/2, x+1/2'
2 'y+1/2, -x+1/2, z+1/2'
3 'x+1/2, -z+1/2, y+1/2'
4 '-z+1/2, y+1/2, -x+1/2'
5 '-y+1/2, x+1/2, -z+1/2'
6 '-x+1/2, z+1/2, -y+1/2'
7 'z+1/2, y+1/2, -x+1/2'
8 'y+1/2, x+1/2, -z+1/2'
9 'x+1/2, z+1/2, -y+1/2'
10 '-z+1/2, -y+1/2, x+1/2'
11 '-y+1/2, -x+1/2, z+1/2'
12 '-x+1/2, -z+1/2, y+1/2'
13 '-z+1/2, y+1/2, x+1/2'
14 '-y+1/2, x+1/2, z+1/2'
15 '-x+1/2, z+1/2, y+1/2'
16 'z+1/2, -y+1/2, -x+1/2'
17 'y+1/2, -x+1/2, -z+1/2'
18 'x+1/2, -z+1/2, -y+1/2'
19 '-z+1/2, -y+1/2, -x+1/2'
20 '-y+1/2, -x+1/2, -z+1/2'
21 '-x+1/2, -z+1/2, -y+1/2'
22 'z+1/2, y+1/2, x+1/2'
23 'y+1/2, x+1/2, z+1/2'
24 'x+1/2, z+1/2, y+1/2'
25 'z, x, -y'
26 'y, z, -x'
27 'x, y, -z'
28 '-z, -x, y'
29 '-y, -z, x'
30 '-x, -y, z'
31 'z, -x, y'
32 'y, -z, x'
33 'x, -y, z'
34 '-z, x, -y'
35 '-y, z, -x'
36 '-x, y, -z'
37 '-z, x, y'
38 '-y, z, x'
39 '-x, y, z'
40 'z, -x, -y'
41 'y, -z, -x'
42 'x, -y, -z'
43 '-z, -x, -y'
44 '-y, -z, -x'
45 '-x, -y, -z'
46 'z, x, y'
47 'y, z, x'
48 'x, y, z'
loop_
_atom_type_symbol
_atom_type_oxidation_number
Sn0+ 0
Cu0+ 0
K0+ 0
loop_
_atom_site_label
_atom_site_type_symbol
_atom_site_symmetry_multiplicity
_atom_site_Wyckoff_symbol
_atom_site_fract_x
_atom_site_fract_y
_atom_site_fract_z
_atom_site_U_iso_or_equiv
_atom_site_occupancy
Sn1 Sn0+ 24 k 0. 0.31620(4) 0.11874(4) 0.02178(16) 1
Sn2 Sn0+ 16 i 0.18263(2) 0.18263(2) 0.18263(2) 0.01278(15) 1
Sn3 Sn0+ 6 c 0.25 0. 0.5 0.0125(4) 0.538(10)
Cu1 Cu0+ 6 c 0.25 0. 0.5 0.0125(4) 0.462(10)
K1 K0+ 24 k 0. 0.250(4) 0.4709(14) 0.053(5) 0.25
K2 K0+ 2 a 0. 0. 0. 0.0241(11) 1
loop_
_atom_site_aniso_label
_atom_site_aniso_type_symbol
_atom_site_aniso_U_11
_atom_site_aniso_U_22
_atom_site_aniso_U_33
_atom_site_aniso_U_12
_atom_site_aniso_U_13
_atom_site_aniso_U_23
Sn1 Sn0+ 0.0130(2) 0.0285(3) 0.0238(3) 0. 0. 0.0131(2)
Sn2 Sn0+ 0.01278(15) 0.01278(15) 0.01278(15) -0.00080(10) -0.00080(10)
-0.00080(10)
Sn3 Sn0+ 0.0142(6) 0.0116(4) 0.0116(4) 0. 0. 0.
Cu1 Cu0+ 0.0142(6) 0.0116(4) 0.0116(4) 0. 0. 0.
K1 K0+ 0.058(9) 0.039(3) 0.061(9) 0. 0. -0.022(11)
K2 K0+ 0.0241(11) 0.0241(11) 0.0241(11) 0. 0. 0.
#End of TTdata_237925-ICSD