
#(C) 2025 by FIZ Karlsruhe - Leibniz Institute for Information Infrastructure.  All rights reserved.
data_205383-ICSD
_database_code_ICSD 205383
_audit_creation_date 2025-02-01
_chemical_name_common
'Octabarium tetradecacopper hexagermanium hexacosaphosphide'
_chemical_formula_structural 'Ba8 Cu14 Ge6 P26'
_chemical_formula_sum 'Ba8 Cu14 Ge6 P26'
_chemical_name_structure_type K8Si46
_exptl_crystal_density_diffrn 5.26
_diffrn_ambient_temperature 90.
_citation_title

;
High-efficiency thermoelectric Ba$_8$Cu$_{14}$Ge$_6$P$_{26}$: bridging the gap
between tetrel-based and tetrel-free clathrates
;
loop_
_citation_id
_citation_journal_full
_citation_year
_citation_journal_volume
_citation_page_first
_citation_page_last
_citation_journal_id_ASTM
primary 'Chemical Science' 2017 8 8030 8038 CSHCCN
loop_
_citation_author_citation_id
_citation_author_name
primary 'Wang, Jian'
primary 'Lebedev, Oleg I.'
primary 'Lee, Kathleen'
primary 'Dolyniuk, Juli-Anna'
primary 'Klavins, Peter'
primary 'Bux, Sabah'
primary 'Kovnir, Kirill'
_cell_length_a 10.0626(8)
_cell_length_b 10.0626(8)
_cell_length_c 10.0626(8)
_cell_angle_alpha 90
_cell_angle_beta 90
_cell_angle_gamma 90
_cell_volume 1018.89
_cell_formula_units_Z 1
_space_group_name_H-M_alt 'P m -3 n'
_space_group_IT_number 223
loop_
_space_group_symop_id
_space_group_symop_operation_xyz
1 'z+1/2, -y+1/2, x+1/2'
2 'y+1/2, -x+1/2, z+1/2'
3 'x+1/2, -z+1/2, y+1/2'
4 '-z+1/2, y+1/2, -x+1/2'
5 '-y+1/2, x+1/2, -z+1/2'
6 '-x+1/2, z+1/2, -y+1/2'
7 'z+1/2, y+1/2, -x+1/2'
8 'y+1/2, x+1/2, -z+1/2'
9 'x+1/2, z+1/2, -y+1/2'
10 '-z+1/2, -y+1/2, x+1/2'
11 '-y+1/2, -x+1/2, z+1/2'
12 '-x+1/2, -z+1/2, y+1/2'
13 '-z+1/2, y+1/2, x+1/2'
14 '-y+1/2, x+1/2, z+1/2'
15 '-x+1/2, z+1/2, y+1/2'
16 'z+1/2, -y+1/2, -x+1/2'
17 'y+1/2, -x+1/2, -z+1/2'
18 'x+1/2, -z+1/2, -y+1/2'
19 '-z+1/2, -y+1/2, -x+1/2'
20 '-y+1/2, -x+1/2, -z+1/2'
21 '-x+1/2, -z+1/2, -y+1/2'
22 'z+1/2, y+1/2, x+1/2'
23 'y+1/2, x+1/2, z+1/2'
24 'x+1/2, z+1/2, y+1/2'
25 'z, x, -y'
26 'y, z, -x'
27 'x, y, -z'
28 '-z, -x, y'
29 '-y, -z, x'
30 '-x, -y, z'
31 'z, -x, y'
32 'y, -z, x'
33 'x, -y, z'
34 '-z, x, -y'
35 '-y, z, -x'
36 '-x, y, -z'
37 '-z, x, y'
38 '-y, z, x'
39 '-x, y, z'
40 'z, -x, -y'
41 'y, -z, -x'
42 'x, -y, -z'
43 '-z, -x, -y'
44 '-y, -z, -x'
45 '-x, -y, -z'
46 'z, x, y'
47 'y, z, x'
48 'x, y, z'
loop_
_atom_type_symbol
_atom_type_oxidation_number
Ba0+ 0
P0+ 0
Cu0+ 0
Ge0+ 0
P0+ 0
Cu0+ 0
Ge0+ 0
P0+ 0
Cu0+ 0
Ge0+ 0
loop_
_atom_site_label
_atom_site_type_symbol
_atom_site_symmetry_multiplicity
_atom_site_Wyckoff_symbol
_atom_site_fract_x
_atom_site_fract_y
_atom_site_fract_z
_atom_site_U_iso_or_equiv
_atom_site_occupancy
Ba1 Ba0+ 2 a 0. 0. 0. 0.00608(14) 1
Ba2 Ba0+ 6 d 0.25 0.5 0. 0.02143(14) 1
P1 P0+ 6 c 0.25 0. 0.5 0.0066(4) 0.609(18)
Cu1 Cu0+ 6 c 0.25 0. 0.5 0.0066(4) 0.35(3)
Ge1 Ge0+ 6 c 0.25 0. 0.5 0.0066(4) 0.04(3)
P2 P0+ 16 i 0.18502(4) 0.18502(4) 0.18502(4) 0.0075(2) 0.687(11)
Cu2 Cu0+ 16 i 0.18502(4) 0.18502(4) 0.18502(4) 0.0075(2) 0.221(13)
Ge2 Ge0+ 16 i 0.18502(4) 0.18502(4) 0.18502(4) 0.0075(2) 0.089(12)
P3 P0+ 24 k 0. 0.30861(5) 0.12066(5) 0.00760(15) 0.473(8)
Cu3 Cu0+ 24 k 0. 0.30861(5) 0.12066(5) 0.00760(15) 0.348(9)
Ge3 Ge0+ 24 k 0. 0.30861(5) 0.12066(5) 0.00760(15) 0.181(8)
loop_
_atom_site_aniso_label
_atom_site_aniso_type_symbol
_atom_site_aniso_U_11
_atom_site_aniso_U_22
_atom_site_aniso_U_33
_atom_site_aniso_U_12
_atom_site_aniso_U_13
_atom_site_aniso_U_23
Ba1 Ba0+ 0.00608(14) 0.00608(14) 0.00608(14) 0. 0. 0.
Ba2 Ba0+ 0.0077(2) 0.02831(18) 0.02831(18) 0. 0. 0.
P1 P0+ 0.0071(6) 0.0063(4) 0.0063(4) 0. 0. 0.
Cu1 Cu0+ 0.0071(6) 0.0063(4) 0.0063(4) 0. 0. 0.
Ge1 Ge0+ 0.0071(6) 0.0063(4) 0.0063(4) 0. 0. 0.
P2 P0+ 0.0075(2) 0.0075(2) 0.0075(2) -0.00100(14) -0.00100(14) -0.00100(14)
Cu2 Cu0+ 0.0075(2) 0.0075(2) 0.0075(2) -0.00100(14) -0.00100(14) -0.00100(14)
Ge2 Ge0+ 0.0075(2) 0.0075(2) 0.0075(2) -0.00100(14) -0.00100(14) -0.00100(14)
P3 P0+ 0.0076(2) 0.0070(2) 0.0082(2) 0. 0. -0.00112(18)
Cu3 Cu0+ 0.0076(2) 0.0070(2) 0.0082(2) 0. 0. -0.00112(18)
Ge3 Ge0+ 0.0076(2) 0.0070(2) 0.0082(2) 0. 0. -0.00112(18)
#End of TTdata_205383-ICSD