
#(C) 2025 by FIZ Karlsruhe - Leibniz Institute for Information Infrastructure.  All rights reserved.
data_189569-ICSD
_database_code_ICSD 189569
_audit_creation_date 2014-02-01
_chemical_name_common 'Barium gallium tin (8/16/30)'
_chemical_formula_structural 'Ba8 Ga16 Sn30'
_chemical_formula_sum 'Ba8 Ga16 Sn30'
_chemical_name_structure_type K8Si46
_exptl_crystal_density_diffrn 5.99
_diffrn_ambient_temperature 100.
_citation_title

;
Combined X-ray and neutron diffraction study of vacancies and disorder in the
dimorphic clathrate Ba8 Ga16 Sn30 of type I and VIII
;
loop_
_citation_id
_citation_journal_full
_citation_year
_citation_journal_volume
_citation_page_first
_citation_page_last
_citation_journal_id_ASTM
primary 'Dalton Transactions' 2013 42 14766 14775 DTARAF
loop_
_citation_author_citation_id
_citation_author_name
primary 'Sebastian Christensen'
primary 'Marcos A. Avila'
primary 'Koichiro Suekuni'
primary 'Ross Piltz'
primary 'Toshiro Takabatake'
primary 'Mogens Christensen'
_cell_length_a 11.693
_cell_length_b 11.693
_cell_length_c 11.693
_cell_angle_alpha 90.
_cell_angle_beta 90.
_cell_angle_gamma 90.
_cell_volume 1598.74
_cell_formula_units_Z 1
_space_group_name_H-M_alt 'P m -3 n'
_space_group_IT_number 223
loop_
_space_group_symop_id
_space_group_symop_operation_xyz
1 'z+1/2, -y+1/2, x+1/2'
2 'y+1/2, -x+1/2, z+1/2'
3 'x+1/2, -z+1/2, y+1/2'
4 '-z+1/2, y+1/2, -x+1/2'
5 '-y+1/2, x+1/2, -z+1/2'
6 '-x+1/2, z+1/2, -y+1/2'
7 'z+1/2, y+1/2, -x+1/2'
8 'y+1/2, x+1/2, -z+1/2'
9 'x+1/2, z+1/2, -y+1/2'
10 '-z+1/2, -y+1/2, x+1/2'
11 '-y+1/2, -x+1/2, z+1/2'
12 '-x+1/2, -z+1/2, y+1/2'
13 '-z+1/2, y+1/2, x+1/2'
14 '-y+1/2, x+1/2, z+1/2'
15 '-x+1/2, z+1/2, y+1/2'
16 'z+1/2, -y+1/2, -x+1/2'
17 'y+1/2, -x+1/2, -z+1/2'
18 'x+1/2, -z+1/2, -y+1/2'
19 '-z+1/2, -y+1/2, -x+1/2'
20 '-y+1/2, -x+1/2, -z+1/2'
21 '-x+1/2, -z+1/2, -y+1/2'
22 'z+1/2, y+1/2, x+1/2'
23 'y+1/2, x+1/2, z+1/2'
24 'x+1/2, z+1/2, y+1/2'
25 'z, x, -y'
26 'y, z, -x'
27 'x, y, -z'
28 '-z, -x, y'
29 '-y, -z, x'
30 '-x, -y, z'
31 'z, -x, y'
32 'y, -z, x'
33 'x, -y, z'
34 '-z, x, -y'
35 '-y, z, -x'
36 '-x, y, -z'
37 '-z, x, y'
38 '-y, z, x'
39 '-x, y, z'
40 'z, -x, -y'
41 'y, -z, -x'
42 'x, -y, -z'
43 '-z, -x, -y'
44 '-y, -z, -x'
45 '-x, -y, -z'
46 'z, x, y'
47 'y, z, x'
48 'x, y, z'
loop_
_atom_type_symbol
_atom_type_oxidation_number
Ba0+ 0
Sn0+ 0
Ga0+ 0
Sn0+ 0
Ga0+ 0
Sn0+ 0
Ga0+ 0
loop_
_atom_site_label
_atom_site_type_symbol
_atom_site_symmetry_multiplicity
_atom_site_Wyckoff_symbol
_atom_site_fract_x
_atom_site_fract_y
_atom_site_fract_z
_atom_site_B_iso_or_equiv
_atom_site_occupancy
Ba1 Ba0+ 2 a 0 0 0 . 1.
Ba2 Ba0+ 6 d 0.25 0.5 0 . 1.
Sn1 Sn0+ 6 c 0.25 0 0.5 . 0.528(48)
Ga1 Ga0+ 6 c 0.25 0 0.5 . 0.472(48)
Sn2 Sn0+ 16 i 0.18383(5) 0.18383(5) 0.18383(5) . 0.60(3)
Ga2 Ga0+ 16 i 0.18383(5) 0.18383(5) 0.18383(5) . 0.40(3)
Sn3 Sn0+ 24 k 0 0.31198(7) 0.11810(7) . 0.718
Ga3 Ga0+ 24 k 0 0.31198(7) 0.11810(7) . 0.282
loop_
_atom_site_aniso_label
_atom_site_aniso_type_symbol
_atom_site_aniso_U_11
_atom_site_aniso_U_22
_atom_site_aniso_U_33
_atom_site_aniso_U_12
_atom_site_aniso_U_13
_atom_site_aniso_U_23
Ba1 Ba0+ 0.0091(8) 0.0091(8) 0.0091(8) 0. 0. 0.
Ba2 Ba0+ 0.013(3) 0.212(6) 0.212(6) 0. 0. 0.
Sn1 Sn0+ 0.0098(9) 0.0078(6) 0.0078(6) 0. 0. 0.
Ga1 Ga0+ 0.0098(9) 0.0078(6) 0.0078(6) 0. 0. 0.
Sn2 Sn0+ 0.0083(4) 0.0083(4) 0.0083(4) -0.0002(2) -0.0002(2) -0.0002(2)
Ga2 Ga0+ 0.0083(4) 0.0083(4) 0.0083(4) -0.0002(2) -0.0002(2) -0.0002(2)
Sn3 Sn0+ 0.0104(4) 0.0078(4) 0.0076(4) 0. 0. -0.0004(3)
Ga3 Ga0+ 0.0104(4) 0.0078(4) 0.0076(4) 0. 0. -0.0004(3)
#End of TTdata_189569-ICSD