
#(C) 2025 by FIZ Karlsruhe - Leibniz Institute for Information Infrastructure.  All rights reserved.
data_409247-ICSD
_database_code_ICSD 409247
_audit_creation_date 1999-06-02
_chemical_name_common 'Potassium gallium silicide (8/7.9/38.1)'
_chemical_formula_structural 'K8 Ga7.9 Si38.1'
_chemical_formula_sum 'Ga7.9 K8 Si38.1'
_chemical_name_structure_type K8Si46
_exptl_crystal_density_diffrn 2.83
_citation_title
'Crystal structure of the clathrates K8 Ga8 Si38 and K8 Ga8 Sn38'
loop_
_citation_id
_citation_journal_full
_citation_year
_citation_journal_volume
_citation_page_first
_citation_page_last
_citation_journal_id_ASTM
primary 'Zeitschrift fuer Kristallographie - New Crystal Structures' 1998 213
667 668 ZKNSFT
loop_
_citation_author_citation_id
_citation_author_name
primary 'Kroener, R.'
primary 'Peters, K.'
primary 'von Schnering, H.G.'
primary 'Nesper, R.'
_cell_length_a 10.427(1)
_cell_length_b 10.427(1)
_cell_length_c 10.427(1)
_cell_angle_alpha 90.
_cell_angle_beta 90.
_cell_angle_gamma 90.
_cell_volume 1133.65
_cell_formula_units_Z 1
_space_group_name_H-M_alt 'P m -3 n'
_space_group_IT_number 223
loop_
_space_group_symop_id
_space_group_symop_operation_xyz
1 'z+1/2, -y+1/2, x+1/2'
2 'y+1/2, -x+1/2, z+1/2'
3 'x+1/2, -z+1/2, y+1/2'
4 '-z+1/2, y+1/2, -x+1/2'
5 '-y+1/2, x+1/2, -z+1/2'
6 '-x+1/2, z+1/2, -y+1/2'
7 'z+1/2, y+1/2, -x+1/2'
8 'y+1/2, x+1/2, -z+1/2'
9 'x+1/2, z+1/2, -y+1/2'
10 '-z+1/2, -y+1/2, x+1/2'
11 '-y+1/2, -x+1/2, z+1/2'
12 '-x+1/2, -z+1/2, y+1/2'
13 '-z+1/2, y+1/2, x+1/2'
14 '-y+1/2, x+1/2, z+1/2'
15 '-x+1/2, z+1/2, y+1/2'
16 'z+1/2, -y+1/2, -x+1/2'
17 'y+1/2, -x+1/2, -z+1/2'
18 'x+1/2, -z+1/2, -y+1/2'
19 '-z+1/2, -y+1/2, -x+1/2'
20 '-y+1/2, -x+1/2, -z+1/2'
21 '-x+1/2, -z+1/2, -y+1/2'
22 'z+1/2, y+1/2, x+1/2'
23 'y+1/2, x+1/2, z+1/2'
24 'x+1/2, z+1/2, y+1/2'
25 'z, x, -y'
26 'y, z, -x'
27 'x, y, -z'
28 '-z, -x, y'
29 '-y, -z, x'
30 '-x, -y, z'
31 'z, -x, y'
32 'y, -z, x'
33 'x, -y, z'
34 '-z, x, -y'
35 '-y, z, -x'
36 '-x, y, -z'
37 '-z, x, y'
38 '-y, z, x'
39 '-x, y, z'
40 'z, -x, -y'
41 'y, -z, -x'
42 'x, -y, -z'
43 '-z, -x, -y'
44 '-y, -z, -x'
45 '-x, -y, -z'
46 'z, x, y'
47 'y, z, x'
48 'x, y, z'
loop_
_atom_type_symbol
_atom_type_oxidation_number
K0+ 0
Ga0+ 0
Si0+ 0
Ga0+ 0
Si0+ 0
Ga0+ 0
Si0+ 0
loop_
_atom_site_label
_atom_site_type_symbol
_atom_site_symmetry_multiplicity
_atom_site_Wyckoff_symbol
_atom_site_fract_x
_atom_site_fract_y
_atom_site_fract_z
_atom_site_B_iso_or_equiv
_atom_site_occupancy
K1 K0+ 2 a 0 0 0 . 1.
K2 K0+ 6 d 0.25 0.5 0 . 1.
Ga1 Ga0+ 6 c 0.25 0 0.5 . 0.566(2)
Si1 Si0+ 6 c 0.25 0 0.5 . 0.434(2)
Ga2 Ga0+ 16 i 0.1845(1) 0.1845(1) 0.1845(1) . 0.019(6)
Si2 Si0+ 16 i 0.1845(1) 0.1845(1) 0.1845(1) . 0.981(6)
Ga3 Ga0+ 24 k 0 0.3058(1) 0.1181(1) . 0.175(7)
Si3 Si0+ 24 k 0 0.3058(1) 0.1181(1) . 0.825(7)
loop_
_atom_site_aniso_label
_atom_site_aniso_type_symbol
_atom_site_aniso_U_11
_atom_site_aniso_U_22
_atom_site_aniso_U_33
_atom_site_aniso_U_12
_atom_site_aniso_U_13
_atom_site_aniso_U_23
K1 K0+ 0.0160(5) 0.0160(5) 0.0160(5) 0 0 0
K2 K0+ 0.0223(7) 0.0344(6) 0.0344(6) 0 0 0
Ga1 Ga0+ 0.0142(4) 0.0123(3) 0.0123(3) 0 0 0
Si1 Si0+ 0.0142(4) 0.0123(3) 0.0123(3) 0 0 0
Ga2 Ga0+ 0.0126(3) 0.0126(3) 0.0126(3) -0.0003(2) -0.0003(2) -0.0003(2)
Si2 Si0+ 0.0126(3) 0.0126(3) 0.0126(3) -0.0003(2) -0.0003(2) -0.0003(2)
Ga3 Ga0+ 0.0133(3) 0.0138(3) 0.0134(3) 0 0 0.0001(2)
Si3 Si0+ 0.0133(3) 0.0138(3) 0.0134(3) 0 0 0.0001(2)
#End of TTdata_409247-ICSD