
#(C) 2025 by FIZ Karlsruhe - Leibniz Institute for Information Infrastructure.  All rights reserved.
data_422652-ICSD
_database_code_ICSD 422652
_audit_creation_date 2016-02-01
_chemical_name_common 'Germanium tin phosphorus iodide (29.8/8.6/7.57/7.88)'
_chemical_formula_structural '(Ge29.8 Sn8.64 P7.57) I7.88'
_chemical_formula_sum 'Ge29.8 I7.88 P7.57 Sn8.64'
_chemical_name_structure_type K8Si46
_exptl_crystal_density_diffrn 5.96
_diffrn_ambient_temperature 293.
_citation_title

;
On the crystal structure of the germanium-based cationic clathrates (Ge38.3
Sb7.7) I7.44,  (Ge38.1 P7.9) I8, and (Ge30.5 Sn7.7 P7.75) I7.88
;
loop_
_citation_id
_citation_journal_full
_citation_year
_citation_journal_volume
_citation_page_first
_citation_page_last
_citation_journal_id_ASTM
primary 'Russian Journal of Coordination Chemistry' 2012 38 192 199 RJCCEY
loop_
_citation_author_citation_id
_citation_author_name
primary 'Kirsanova, M.A.'
primary 'Reshetova, L.N.'
primary 'Olenev, A.V.'
primary 'Shevelkov, A.V.'
_cell_length_a 10.7210(10)
_cell_length_b 10.7210(10)
_cell_length_c 10.7210(10)
_cell_angle_alpha 90.
_cell_angle_beta 90.
_cell_angle_gamma 90.
_cell_volume 1232.27
_cell_formula_units_Z 1
_space_group_name_H-M_alt 'P m -3 n'
_space_group_IT_number 223
loop_
_space_group_symop_id
_space_group_symop_operation_xyz
1 'z+1/2, -y+1/2, x+1/2'
2 'y+1/2, -x+1/2, z+1/2'
3 'x+1/2, -z+1/2, y+1/2'
4 '-z+1/2, y+1/2, -x+1/2'
5 '-y+1/2, x+1/2, -z+1/2'
6 '-x+1/2, z+1/2, -y+1/2'
7 'z+1/2, y+1/2, -x+1/2'
8 'y+1/2, x+1/2, -z+1/2'
9 'x+1/2, z+1/2, -y+1/2'
10 '-z+1/2, -y+1/2, x+1/2'
11 '-y+1/2, -x+1/2, z+1/2'
12 '-x+1/2, -z+1/2, y+1/2'
13 '-z+1/2, y+1/2, x+1/2'
14 '-y+1/2, x+1/2, z+1/2'
15 '-x+1/2, z+1/2, y+1/2'
16 'z+1/2, -y+1/2, -x+1/2'
17 'y+1/2, -x+1/2, -z+1/2'
18 'x+1/2, -z+1/2, -y+1/2'
19 '-z+1/2, -y+1/2, -x+1/2'
20 '-y+1/2, -x+1/2, -z+1/2'
21 '-x+1/2, -z+1/2, -y+1/2'
22 'z+1/2, y+1/2, x+1/2'
23 'y+1/2, x+1/2, z+1/2'
24 'x+1/2, z+1/2, y+1/2'
25 'z, x, -y'
26 'y, z, -x'
27 'x, y, -z'
28 '-z, -x, y'
29 '-y, -z, x'
30 '-x, -y, z'
31 'z, -x, y'
32 'y, -z, x'
33 'x, -y, z'
34 '-z, x, -y'
35 '-y, z, -x'
36 '-x, y, -z'
37 '-z, x, y'
38 '-y, z, x'
39 '-x, y, z'
40 'z, -x, -y'
41 'y, -z, -x'
42 'x, -y, -z'
43 '-z, -x, -y'
44 '-y, -z, -x'
45 '-x, -y, -z'
46 'z, x, y'
47 'y, z, x'
48 'x, y, z'
loop_
_atom_type_symbol
_atom_type_oxidation_number
I0+ 0
Sn0+ 0
Ge0+ 0
P0+ 0
Ge0+ 0
loop_
_atom_site_label
_atom_site_type_symbol
_atom_site_symmetry_multiplicity
_atom_site_Wyckoff_symbol
_atom_site_fract_x
_atom_site_fract_y
_atom_site_fract_z
_atom_site_U_iso_or_equiv
_atom_site_occupancy
I1 I0+ 2 a 0. 0. 0. 0.0168(7) 0.938(11)
I2 I0+ 6 c 0.25 0. 0.5 0.0223(4) 1
Sn1 Sn0+ 24 k 0. 0.11943(8) 0.30779(8) 0.0199(3) 0.36(1)
Ge1 Ge0+ 24 k 0. 0.11943(8) 0.30779(8) 0.0199(3) 0.64(1)
Ge2 Ge0+ 16 i 0.18545(9) 0.18545(9) 0.18545(9) 0.0148(5) 0.527(5)
P1 P0+ 16 i 0.18545(9) 0.18545(9) 0.18545(9) 0.0148(5) 0.473(5)
Ge3 Ge0+ 6 d 0. 0.25 0.5 0.0235(6) 1
loop_
_atom_site_aniso_label
_atom_site_aniso_type_symbol
_atom_site_aniso_U_11
_atom_site_aniso_U_22
_atom_site_aniso_U_33
_atom_site_aniso_U_12
_atom_site_aniso_U_13
_atom_site_aniso_U_23
I1 I0+ 0.0168(7) 0.0168(7) 0.0168(7) 0. 0. 0.
I2 I0+ 0.0177(7) 0.0246(5) 0.0246(5) 0. 0. 0.
Sn1 Sn0+ 0.0171(5) 0.0214(5) 0.0211(5) 0. 0. -0.0025(4)
Ge1 Ge0+ 0.0171(5) 0.0214(5) 0.0211(5) 0. 0. -0.0025(4)
Ge2 Ge0+ 0.0148(5) 0.0148(5) 0.0148(5) -0.0004(3) -0.0004(3) -0.0004(3)
P1 P0+ 0.0148(5) 0.0148(5) 0.0148(5) -0.0004(3) -0.0004(3) -0.0004(3)
Ge3 Ge0+ 0.0196(7) 0.0311(12) 0.0196(7) 0. 0. 0.
#End of TTdata_422652-ICSD