
#(C) 2025 by FIZ Karlsruhe - Leibniz Institute for Information Infrastructure.  All rights reserved.
data_166712-ICSD
_database_code_ICSD 166712
_audit_creation_date 2010-08-01
_chemical_name_common
'Barium cadmium silicon (8.15/7.02/39.36) - clathrate type I'
_chemical_formula_structural 'Ba8.15 (Cd7.02 Si39.36)'
_chemical_formula_sum 'Ba8.15 Cd7.02 Si39.36'
_chemical_name_structure_type K8Si46
_exptl_crystal_density_diffrn 4.22
_diffrn_ambient_temperature 300.
_citation_title

;
Clathrates Ba8 (Zn, Cd)x Si46-x, x ~ 7: synthesis, crystal structure and
thermoelectric properties
;
loop_
_citation_id
_citation_journal_full
_citation_year
_citation_journal_volume
_citation_page_first
_citation_page_last
_citation_journal_id_ASTM
primary 'Journal of Physics: Condensed Matter' 2009 21 1 8 JCOMEL
loop_
_citation_author_citation_id
_citation_author_name
primary 'Nasir, N.'
primary 'Grytsiv, A.'
primary 'Melnychenko Koblyuk, N.'
primary 'Rogl, P.'
primary 'Bauer, E.'
primary 'Lackner, R.'
primary 'Royanian, E.'
primary 'Giester, G.'
primary 'Saccone, A.'
_cell_length_a 10.5866(3)
_cell_length_b 10.5866(3)
_cell_length_c 10.5866(3)
_cell_angle_alpha 90.
_cell_angle_beta 90.
_cell_angle_gamma 90.
_cell_volume 1186.5
_cell_formula_units_Z 1
_space_group_name_H-M_alt 'P m -3 n'
_space_group_IT_number 223
loop_
_space_group_symop_id
_space_group_symop_operation_xyz
1 'z+1/2, -y+1/2, x+1/2'
2 'y+1/2, -x+1/2, z+1/2'
3 'x+1/2, -z+1/2, y+1/2'
4 '-z+1/2, y+1/2, -x+1/2'
5 '-y+1/2, x+1/2, -z+1/2'
6 '-x+1/2, z+1/2, -y+1/2'
7 'z+1/2, y+1/2, -x+1/2'
8 'y+1/2, x+1/2, -z+1/2'
9 'x+1/2, z+1/2, -y+1/2'
10 '-z+1/2, -y+1/2, x+1/2'
11 '-y+1/2, -x+1/2, z+1/2'
12 '-x+1/2, -z+1/2, y+1/2'
13 '-z+1/2, y+1/2, x+1/2'
14 '-y+1/2, x+1/2, z+1/2'
15 '-x+1/2, z+1/2, y+1/2'
16 'z+1/2, -y+1/2, -x+1/2'
17 'y+1/2, -x+1/2, -z+1/2'
18 'x+1/2, -z+1/2, -y+1/2'
19 '-z+1/2, -y+1/2, -x+1/2'
20 '-y+1/2, -x+1/2, -z+1/2'
21 '-x+1/2, -z+1/2, -y+1/2'
22 'z+1/2, y+1/2, x+1/2'
23 'y+1/2, x+1/2, z+1/2'
24 'x+1/2, z+1/2, y+1/2'
25 'z, x, -y'
26 'y, z, -x'
27 'x, y, -z'
28 '-z, -x, y'
29 '-y, -z, x'
30 '-x, -y, z'
31 'z, -x, y'
32 'y, -z, x'
33 'x, -y, z'
34 '-z, x, -y'
35 '-y, z, -x'
36 '-x, y, -z'
37 '-z, x, y'
38 '-y, z, x'
39 '-x, y, z'
40 'z, -x, -y'
41 'y, -z, -x'
42 'x, -y, -z'
43 '-z, -x, -y'
44 '-y, -z, -x'
45 '-x, -y, -z'
46 'z, x, y'
47 'y, z, x'
48 'x, y, z'
loop_
_atom_type_symbol
_atom_type_oxidation_number
Ba0+ 0
Cd0+ 0
Si0+ 0
Cd0+ 0
loop_
_atom_site_label
_atom_site_type_symbol
_atom_site_symmetry_multiplicity
_atom_site_Wyckoff_symbol
_atom_site_fract_x
_atom_site_fract_y
_atom_site_fract_z
_atom_site_B_iso_or_equiv
_atom_site_occupancy
Ba1 Ba0+ 2 a 0 0 0 0.45(4) 1.015(5)
Ba2 Ba0+ 6 c 0.25 0 0.5 1.38(5) 1.02(3)
Cd1 Cd0+ 6 d 0.25 0.5 0 1.08 1.01(1)
Si1 Si0+ 16 i 0.1835(2) 0.1835(2) 0.1835(2) 0.95(8) 1.02(3)
Si2 Si0+ 24 k 0 0.1151(2) 0.2968(3) 1.15(7) 0.96(1)
Cd2 Cd0+ 24 k 0 0.1151(2) 0.2968(3) 1.15(7) 0.04(1)
#End of TTdata_166712-ICSD