
#(C) 2025 by FIZ Karlsruhe - Leibniz Institute for Information Infrastructure.  All rights reserved.
data_25066-ICSD
_database_code_ICSD 25066
_audit_creation_date 2021-08-01
_chemical_name_common 'Potassium borosilicide'
_chemical_formula_structural 'K7.08 B6.8 Si39.2'
_chemical_formula_sum 'B6.8 K7.08 Si39.2'
_chemical_name_structure_type K8Si46
_exptl_crystal_density_diffrn 2.45
_diffrn_ambient_temperature 295.
_citation_title

;
The impact of boron atoms on clathrate-I silicides: composition range of the
borosilicide K$_{8âˆ’x}$B$_y$Si$_{46âˆ’y}$
;
loop_
_citation_id
_citation_journal_full
_citation_year
_citation_journal_volume
_citation_page_first
_citation_page_last
_citation_journal_id_ASTM
primary 'Dalton Transactions' 2021 50 1274 1282 DTARAF
loop_
_citation_author_citation_id
_citation_author_name
primary 'Jung, Walter'
primary 'BÃ¶hme, Bodo'
primary 'HÃ¼bner, Julia M.'
primary 'Burkhardt, Ulrich'
primary 'Borrmann, Horst'
primary 'Bobnar, Matej'
primary 'Nguyen, Hong Duong'
primary 'Pantenburg, Ingo'
primary 'Etter, Martin'
primary 'Schwarz, Ulrich'
primary 'Grina, Yuri'
primary 'Baitinger, Michael'
_cell_length_a 9.951(1)
_cell_length_b 9.951(1)
_cell_length_c 9.951(1)
_cell_angle_alpha 90
_cell_angle_beta 90
_cell_angle_gamma 90
_cell_volume 985.37
_cell_formula_units_Z 1
_space_group_name_H-M_alt 'P m -3 n'
_space_group_IT_number 223
loop_
_space_group_symop_id
_space_group_symop_operation_xyz
1 'z+1/2, -y+1/2, x+1/2'
2 'y+1/2, -x+1/2, z+1/2'
3 'x+1/2, -z+1/2, y+1/2'
4 '-z+1/2, y+1/2, -x+1/2'
5 '-y+1/2, x+1/2, -z+1/2'
6 '-x+1/2, z+1/2, -y+1/2'
7 'z+1/2, y+1/2, -x+1/2'
8 'y+1/2, x+1/2, -z+1/2'
9 'x+1/2, z+1/2, -y+1/2'
10 '-z+1/2, -y+1/2, x+1/2'
11 '-y+1/2, -x+1/2, z+1/2'
12 '-x+1/2, -z+1/2, y+1/2'
13 '-z+1/2, y+1/2, x+1/2'
14 '-y+1/2, x+1/2, z+1/2'
15 '-x+1/2, z+1/2, y+1/2'
16 'z+1/2, -y+1/2, -x+1/2'
17 'y+1/2, -x+1/2, -z+1/2'
18 'x+1/2, -z+1/2, -y+1/2'
19 '-z+1/2, -y+1/2, -x+1/2'
20 '-y+1/2, -x+1/2, -z+1/2'
21 '-x+1/2, -z+1/2, -y+1/2'
22 'z+1/2, y+1/2, x+1/2'
23 'y+1/2, x+1/2, z+1/2'
24 'x+1/2, z+1/2, y+1/2'
25 'z, x, -y'
26 'y, z, -x'
27 'x, y, -z'
28 '-z, -x, y'
29 '-y, -z, x'
30 '-x, -y, z'
31 'z, -x, y'
32 'y, -z, x'
33 'x, -y, z'
34 '-z, x, -y'
35 '-y, z, -x'
36 '-x, y, -z'
37 '-z, x, y'
38 '-y, z, x'
39 '-x, y, z'
40 'z, -x, -y'
41 'y, -z, -x'
42 'x, -y, -z'
43 '-z, -x, -y'
44 '-y, -z, -x'
45 '-x, -y, -z'
46 'z, x, y'
47 'y, z, x'
48 'x, y, z'
loop_
_atom_type_symbol
_atom_type_oxidation_number
K0+ 0
Si0+ 0
B0+ 0
loop_
_atom_site_label
_atom_site_type_symbol
_atom_site_symmetry_multiplicity
_atom_site_Wyckoff_symbol
_atom_site_fract_x
_atom_site_fract_y
_atom_site_fract_z
_atom_site_B_iso_or_equiv
_atom_site_occupancy
K1 K0+ 2 a 0 0 0 0.683(8) 0.537(7)
K2 K0+ 6 d 0.25 0.5 0 1.501(9) 1.
Si1 Si0+ 6 c 0.25 0 0.5 0.596(8) 1.
Si2 Si0+ 16 i 0.19667(7) 0.19667 0.19667 0.580(6) 0.383(9)
Si3 Si0+ 16 i 0.18285(7) 0.18285 0.18285 0.640(7) 0.356(9)
Si4 Si0+ 24 k 0 0.30356(8) 0.11801(8) 0.69(1) 0.513(2)
Si5 Si0+ 48 l 0.0160(1) 0.28995(10) 0.1267(1) 0.50(2) 0.238(1)
loop_
_atom_site_aniso_label
_atom_site_aniso_type_symbol
_atom_site_aniso_B_11
_atom_site_aniso_B_22
_atom_site_aniso_B_33
_atom_site_aniso_B_12
_atom_site_aniso_B_13
_atom_site_aniso_B_23
K1 K0+ 0.68(1) 0.68(1) 0.68(1) 0 0 0
K2 K0+ 1.04(2) 1.73(1) 1.73(1) 0 0 0
Si1 Si0+ 0.63(2) 0.58(1) 0.58(1) 0 0 0
Si2 Si0+ 0.58(1) 0.58(1) 0.58(1) 0.07(1) 0.07(1) 0.07(1)
Si3 Si0+ 0.64(1) 0.64(1) 0.64(1) 0.03(1) 0.03(1) 0.03(1)
Si4 Si0+ 0.79(2) 0.61(2) 0.67(2) 0 0 -0.05(1)
Si5 Si0+ 0.46(4) 0.57(2) 0.48(2) 0.17(2) -0.14(2) -0.03(2)
#End of TTdata_25066-ICSD