
#(C) 2020 by FIZ Karlsruhe - Leibniz Institute for Information Infrastructure.  All rights reserved.
data_58551-ICSD
_database_code_ICSD 58551
_audit_creation_date 2004-04-01
_chemical_name_common 'Gold manganese (5/2)'
_chemical_formula_structural 'Au5 Mn2'
_chemical_formula_sum 'Au5 Mn2'
_exptl_crystal_density_diffrn 15.58
_citation_title

;
Establishment of an ordered phase of composition Au5 Mn2 in the gold-manganese
system
;
loop_
_citation_id
_citation_journal_full
_citation_year
_citation_journal_volume
_citation_page_first
_citation_page_last
_citation_journal_id_ASTM
primary 'Acta Crystallographica' 1964 17 1485 1486 ACCRA9
loop_
_citation_author_citation_id
_citation_author_name
primary 'Humble, S.G.'
_cell_length_a 9.188
_cell_length_b 3.954
_cell_length_c 6.479
_cell_angle_alpha 90.
_cell_angle_beta 97.56
_cell_angle_gamma 90.
_cell_volume 233.33
_cell_formula_units_Z 2
_space_group_name_H-M_alt 'C 1 2/m 1'
_space_group_IT_number 12
loop_
_space_group_symop_id
_space_group_symop_operation_xyz
1 '-x, y, -z'
2 '-x, -y, -z'
3 'x, -y, z'
4 'x, y, z'
5 '-x+1/2, y+1/2, -z'
6 '-x+1/2, -y+1/2, -z'
7 'x+1/2, -y+1/2, z'
8 'x+1/2, y+1/2, z'
loop_
_atom_type_symbol
_atom_type_oxidation_number
Au0+ 0
Mn0+ 0
loop_
_atom_site_label
_atom_site_type_symbol
_atom_site_symmetry_multiplicity
_atom_site_Wyckoff_symbol
_atom_site_fract_x
_atom_site_fract_y
_atom_site_fract_z
_atom_site_B_iso_or_equiv
_atom_site_occupancy
Au1 Au0+ 2 a 0 0 0 . 1.
Au2 Au0+ 4 i 0.143 0 0.429 . 1.
Au3 Au0+ 4 i 0.714 0 0.143 . 1.
Mn1 Mn0+ 4 i 0.429 0 0.286 . 1.
#End of TTdata_58551-ICSD