
#(C) 2024 by FIZ Karlsruhe - Leibniz Institute for Information Infrastructure.  All rights reserved.
data_181372-ICSD
_database_code_ICSD 181372
_audit_creation_date 2012-02-01
_audit_update_record 2016-02-01
_chemical_name_common
'(Dicalcium cobalt trioxide) (cobalt dioxide) (1/1.61) - (Ca2 Co O3) - part'
_chemical_formula_structural 'Ca2 Co O3'
_chemical_formula_sum 'Ca2 Co1 O3'
_chemical_name_structure_type Sr2CoO3
_exptl_crystal_density_diffrn 2.69
_citation_title 'Discommensuration of doped (Ca2 Co O3)p Co O2'
loop_
_citation_id
_citation_journal_full
_citation_year
_citation_journal_volume
_citation_page_first
_citation_page_last
_citation_journal_id_ASTM
primary 'Journal of Electronic Materials' 2009 38 1462 1467 JECMA5
loop_
_citation_author_citation_id
_citation_author_name
primary 'Kajitani, T.'
primary 'Yubuta, K.'
primary 'Huang Xiang Yang'
primary 'Miyazaki, Y.'
_cell_length_a 4.8339(3)
_cell_length_b 4.4482(2)
_cell_length_c 10.8436(7)
_cell_angle_alpha 90.
_cell_angle_beta 98.14(1)
_cell_angle_gamma 90.
_cell_volume 230.81
_cell_formula_units_Z 2
_space_group_name_H-M_alt 'C 1 2/m 1'
_space_group_IT_number 12
loop_
_space_group_symop_id
_space_group_symop_operation_xyz
1 '-x, y, -z'
2 '-x, -y, -z'
3 'x, -y, z'
4 'x, y, z'
5 '-x+1/2, y+1/2, -z'
6 '-x+1/2, -y+1/2, -z'
7 'x+1/2, -y+1/2, z'
8 'x+1/2, y+1/2, z'
loop_
_atom_type_symbol
_atom_type_oxidation_number
Ca2+ 2
Co2+ 2
O2- -2
loop_
_atom_site_label
_atom_site_type_symbol
_atom_site_symmetry_multiplicity
_atom_site_Wyckoff_symbol
_atom_site_fract_x
_atom_site_fract_y
_atom_site_fract_z
_atom_site_B_iso_or_equiv
_atom_site_occupancy
Ca1 Ca2+ 4 i 0.149(35) 0 0.720(8) 2.4(24) 1.
Co1 Co2+ 2 d 0 0.5 0.5 3.0(11) 1.
O1 O2- 2 c 0 0 0.5 0.90(22) 1.
O2 O2- 4 i -0.521(58) 0 0.271(25) 0.38(107) 1.
#End of TTdata_181372-ICSD