
#(C) 2024 by FIZ Karlsruhe - Leibniz Institute for Information Infrastructure.  All rights reserved.
data_416148-ICSD
_database_code_ICSD 416148
_audit_creation_date 2007-08-01
_chemical_name_common 'Mercury(II) chromate(VI) - alpha'
_chemical_formula_structural 'Hg (Cr O4)'
_chemical_formula_sum 'Cr1 Hg1 O4'
_chemical_name_structure_type AgMnO4
_exptl_crystal_density_diffrn 6.11
_citation_title

;
Hydrothermal crystal growth and crystal structures of the mercury(II)
chromates(VI) alpha - Hg Cr O4, beta - Hg Cr O4 and Hg Cr O4 (H2 O)
;
loop_
_citation_id
_citation_journal_full
_citation_year
_citation_journal_volume
_citation_page_first
_citation_page_last
_citation_journal_id_ASTM
primary 'Zeitschrift fuer Naturforschung, B: A Journal of Chemical Sciences'
2006 61 708 714 ZNBSEN
loop_
_citation_author_citation_id
_citation_author_name
primary 'Stoeger, B.'
primary 'Weil, M.'
_cell_length_a 5.5079(8)
_cell_length_b 8.5266(12)
_cell_length_c 7.3503(10)
_cell_angle_alpha 90.
_cell_angle_beta 94.022(3)
_cell_angle_gamma 90.
_cell_volume 344.35
_cell_formula_units_Z 4
_space_group_name_H-M_alt 'P 1 21/n 1'
_space_group_IT_number 14
loop_
_space_group_symop_id
_space_group_symop_operation_xyz
1 '-x+1/2, y+1/2, -z+1/2'
2 '-x, -y, -z'
3 'x+1/2, -y+1/2, z+1/2'
4 'x, y, z'
loop_
_atom_type_symbol
_atom_type_oxidation_number
Hg2+ 2
Cr6+ 6
O2- -2
loop_
_atom_site_label
_atom_site_type_symbol
_atom_site_symmetry_multiplicity
_atom_site_Wyckoff_symbol
_atom_site_fract_x
_atom_site_fract_y
_atom_site_fract_z
_atom_site_U_iso_or_equiv
_atom_site_occupancy
Hg1 Hg2+ 4 e 0.25251(7) 0.03660(5) 0.15817(6) 0.01983(10) 1
Cr1 Cr6+ 4 e 0.2773(3) 0.18907(16) 0.6641(2) 0.0147(3) 1
O1 O2- 4 e 0.4117(11) 0.3588(8) 0.6066(9) 0.0242(16) 1
O2 O2- 4 e 0.4392(11) 0.1098(7) 0.8438(8) 0.0207(15) 1
O3 O2- 4 e 0.2662(12) 0.0711(7) 0.4925(9) 0.0274(18) 1
O4 O2- 4 e 0.0023(10) 0.2229(8) 0.7189(8) 0.0224(16) 1
loop_
_atom_site_aniso_label
_atom_site_aniso_type_symbol
_atom_site_aniso_U_11
_atom_site_aniso_U_22
_atom_site_aniso_U_33
_atom_site_aniso_U_12
_atom_site_aniso_U_13
_atom_site_aniso_U_23
Hg1 Hg2+ 0.01661(17) 0.02246(19) 0.02023(18) 0.0030(2) -0.00006(12) -0.0028(2)
Cr1 Cr6+ 0.0138(8) 0.0174(8) 0.0129(7) 0.0005(7) 0.0009(6) 0.0021(7)
O1 O2- 0.019(4) 0.023(4) 0.030(4) -0.009(3) -0.003(3) 0.010(3)
O2 O2- 0.020(4) 0.018(4) 0.024(4) 0.002(3) 0.002(3) 0.003(3)
O3 O2- 0.033(4) 0.020(4) 0.029(4) -0.002(3) 0.002(3) -0.003(3)
O4 O2- 0.011(4) 0.030(4) 0.028(4) 0.001(3) 0.009(3) -0.001(3)
#End of TTdata_416148-ICSD