
#(C) 2024 by FIZ Karlsruhe - Leibniz Institute for Information Infrastructure.  All rights reserved.
data_413266-ICSD
_database_code_ICSD 413266
_audit_creation_date 2012-08-01
_chemical_name_common 'Nitrosyl copper trinitrate'
_chemical_formula_structural '(N O) (Cu (N O3)3)'
_chemical_formula_sum 'Cu1 N4 O10'
_exptl_crystal_density_diffrn 2.61
_diffrn_ambient_temperature 160.
_citation_title

;
Synthesis and crystal structure of copper(II) nitrate complexes N O (Cu (N
O3)3), Na2 (Cu (N O3)4) and Ag2 (Cu (N O3)4)
;
loop_
_citation_id
_citation_journal_full
_citation_year
_citation_journal_volume
_citation_page_first
_citation_page_last
_citation_journal_id_ASTM
primary 'Zhurnal Neorganicheskoi Khimii' 2004 49 213 220 ZNOKAQ
loop_
_citation_author_citation_id
_citation_author_name
primary 'Znamenkov, K.O.'
primary 'Morozov, I.V.'
primary 'Troyanov, S.I.'
_cell_length_a 4.6580(10)
_cell_length_b 11.102(3)
_cell_length_c 7.009(2)
_cell_angle_alpha 90.
_cell_angle_beta 100.83(2)
_cell_angle_gamma 90.
_cell_volume 356.
_cell_formula_units_Z 2
_space_group_name_H-M_alt 'P 1 21/m 1'
_space_group_IT_number 11
loop_
_space_group_symop_id
_space_group_symop_operation_xyz
1 'x, -y+1/2, z'
2 '-x, -y, -z'
3 '-x, y+1/2, -z'
4 'x, y, z'
loop_
_atom_type_symbol
_atom_type_oxidation_number
Cu2+ 2
N5+ 5
N3+ 3
O2- -2
loop_
_atom_site_label
_atom_site_type_symbol
_atom_site_symmetry_multiplicity
_atom_site_Wyckoff_symbol
_atom_site_fract_x
_atom_site_fract_y
_atom_site_fract_z
_atom_site_U_iso_or_equiv
_atom_site_occupancy
Cu1 Cu2+ 2 d 0.5 0.5 0.5 0.01273(10) 1
N1 N5+ 2 e 0.3697(3) 0.25 0.4333(2) 0.0113(3) 1
N2 N5+ 4 f 0.0127(3) 0.56046(11) 0.21357(17) 0.0137(2) 1
N3 N3+ 2 e 0.2454(7) 0.75 -0.0825(4) 0.0374(6) 1
O1 O2- 4 f 0.4394(2) 0.34618(9) 0.35364(15) 0.0162(2) 1
O2 O2- 2 e 0.2446(3) 0.25 0.5699(2) 0.0183(3) 1
O3 O2- 4 f 0.2825(2) 0.58876(9) 0.28078(15) 0.0163(2) 1
O4 O2- 4 f -0.1065(3) 0.48164(10) 0.29513(19) 0.0227(2) 1
O5 O2- 4 f -0.1102(2) 0.61440(10) 0.06743(15) 0.0189(2) 1
O6 O2- 2 e 0.4185(5) 0.75 0.0263(4) 0.0187(4) 0.76
O7 O2- 4 f 0.378(2) 0.7018(9) -0.0189(14) 0.0131(16) 0.12
loop_
_atom_site_aniso_label
_atom_site_aniso_type_symbol
_atom_site_aniso_U_11
_atom_site_aniso_U_22
_atom_site_aniso_U_33
_atom_site_aniso_U_12
_atom_site_aniso_U_13
_atom_site_aniso_U_23
Cu1 Cu2+ 0.01687(13) 0.00648(12) 0.01417(13) 0.00063(8) 0.00121(8) 0.00053(8)
N1 N5+ 0.0114(7) 0.0088(7) 0.0135(7) 0. 0.0017(5) 0.
N2 N5+ 0.0137(5) 0.0117(5) 0.0166(5) 0.0016(4) 0.0053(4) -0.0009(4)
N3 N3+ 0.0569(17) 0.0290(12) 0.0304(12) 0. 0.0189(12) 0.
O1 O2- 0.0268(5) 0.0072(4) 0.0153(4) -0.0009(4) 0.0057(4) 0.0017(3)
O2 O2- 0.0210(7) 0.0184(7) 0.0182(7) 0. 0.0105(6) 0.
O3 O2- 0.0146(4) 0.0130(4) 0.0198(5) -0.0016(4) 0.0000(4) 0.0036(4)
O4 O2- 0.0210(5) 0.0181(5) 0.0325(6) -0.0018(4) 0.0137(5) 0.0054(4)
O5 O2- 0.0172(5) 0.0192(5) 0.0190(5) 0.0040(4) 0.0001(4) 0.0020(4)
O6 O2- 0.0158(10) 0.0119(11) 0.0317(13) 0. 0.0129(9) 0.
O7 O2- 0.010(2) 0.017(2) 0.013(2) 0.0035(19) 0.0027(17) 0.0047(18)
#End of TTdata_413266-ICSD