
#(C) 2024 by FIZ Karlsruhe - Leibniz Institute for Information Infrastructure.  All rights reserved.
data_260216-ICSD
_database_code_ICSD 260216
_audit_creation_date 2009-08-01
_chemical_name_common 'Silver germanium praseodymium sulfide (0.89/1/3/7)'
_chemical_formula_structural 'Ag0.89 Ge Pr3 S7'
_chemical_formula_sum 'Ag0.89 Ge1 Pr3 S7'
_chemical_name_structure_type CuLa3SiS7
_exptl_crystal_density_diffrn 5.18
_diffrn_ambient_temperature 295.
_citation_title

;
Ln3 M1 - T X7 - quasi - isostructural compounds: stereochemistry and silver -
ion motion in the Ln3 Ag1 - Ge S7 (Ln = La - Nd, Sm, Gd - Er and Y;  = 0.11 -
0.50) compounds
;
loop_
_citation_id
_citation_journal_full
_citation_year
_citation_journal_volume
_citation_page_first
_citation_page_last
_citation_journal_id_ASTM
primary 'Acta Crystallographica, Section B: Structural Science' 2009 65 126 133
ASBSDK
loop_
_citation_author_citation_id
_citation_author_name
primary 'Daszkiewicz, M.'
primary 'Gulay, L.D.'
primary 'Lychmanyuk, O.S.'
_cell_length_a 10.2290(14)
_cell_length_b 10.2290(14)
_cell_length_c 5.7760(11)
_cell_angle_alpha 90.
_cell_angle_beta 90.
_cell_angle_gamma 120.
_cell_volume 523.39
_cell_formula_units_Z 2
_space_group_name_H-M_alt 'P 63'
_space_group_IT_number 173
loop_
_space_group_symop_id
_space_group_symop_operation_xyz
1 'x-y, x, z+1/2'
2 'y, -x+y, z+1/2'
3 '-x, -y, z+1/2'
4 '-x+y, -x, z'
5 '-y, x-y, z'
6 'x, y, z'
loop_
_atom_type_symbol
_atom_type_oxidation_number
Pr3+ 3
Ag1+ 1
Ge4+ 4
S2- -2
loop_
_atom_site_label
_atom_site_type_symbol
_atom_site_symmetry_multiplicity
_atom_site_Wyckoff_symbol
_atom_site_fract_x
_atom_site_fract_y
_atom_site_fract_z
_atom_site_U_iso_or_equiv
_atom_site_occupancy
Pr1 Pr3+ 6 c 0.87391(5) 0.64129(5) 0.23910(18) 0.01118(19) 1
Ag1 Ag1+ 2 a 0. 0. 0.1692(9) 0.027(4) 0.49(5)
Ag2 Ag1+ 2 a 0. 0. 1.094(18) 0.165(10) 0.41(5)
Ge1 Ge4+ 2 b 0.3333 0.6667 0.3227(3) 0.0104(4) 1
S1 S2- 2 b 0.3333 0.6667 0.9467(7) 0.0131(10) 1
S2 S2- 6 c 0.9060(2) 0.7345(3) 0.7230(5) 0.0152(5) 1
S3 S2- 6 c 0.5856(3) 0.4788(3) 0.9755(4) 0.0123(5) 1
loop_
_atom_site_aniso_label
_atom_site_aniso_type_symbol
_atom_site_aniso_U_11
_atom_site_aniso_U_22
_atom_site_aniso_U_33
_atom_site_aniso_U_12
_atom_site_aniso_U_13
_atom_site_aniso_U_23
Pr1 Pr3+ 0.0115(3) 0.0105(3) 0.0116(3) 0.0055(2) -0.0010(3) -0.0008(3)
Ag1 Ag1+ 0.011(2) 0.011(2) 0.059(9) 0.0054(10) 0. 0.
Ag2 Ag1+ 0.019(3) 0.019(3) 0.46(3) 0.0097(16) 0. 0.
Ge1 Ge4+ 0.0121(6) 0.0121(6) 0.0071(9) 0.0060(3) 0. 0.
S1 S2- 0.0147(14) 0.0147(14) 0.010(3) 0.0073(7) 0. 0.
S2 S2- 0.0112(11) 0.0187(11) 0.0149(12) 0.0068(9) -0.0001(11) -0.0018(14)
S3 S2- 0.0137(12) 0.0113(12) 0.0122(13) 0.0063(11) 0.0006(10) -0.0001(10)
#End of TTdata_260216-ICSD