
#(C) 2024 by FIZ Karlsruhe - Leibniz Institute for Information Infrastructure.  All rights reserved.
data_117160-ICSD
_database_code_ICSD 117160
_audit_creation_date 2023-02-01
_chemical_name_common 'Dilithium bis(hexaoxoaluminodisilicate) dihydrate'
_chemical_formula_structural 'Li2 (Al2 Si4 O12) (H2 O)2'
_chemical_formula_sum 'H4 Al2 Li2 O14 Si4'
_chemical_name_structure_type Bikitaite-1A-frame#Li2Al2Si4O12(H2O)2
_chemical_name_mineral Bikitaite
_exptl_crystal_density_diffrn 2.54
_diffrn_ambient_pressure 5700000.
_citation_title

;
High-pressure behavior of bikitaite: An integrated theoretical and
experimental approach
;
loop_
_citation_id
_citation_journal_full
_citation_year
_citation_journal_volume
_citation_page_first
_citation_page_last
_citation_journal_id_ASTM
primary 'American Mineralogist' 2002 87 1415 1425 AMMIAY
loop_
_citation_author_citation_id
_citation_author_name
primary 'Ferro, Orazio'
primary 'Quartieri, Simona'
primary 'Vezzalini,  Giovanna'
primary 'Fois, Ettore'
primary 'Gamba, Aldo'
primary 'Tabacchi, Gloria'
_cell_length_a 8.4932(16)
_cell_length_b 4.7773(6)
_cell_length_c 7.2443(9)
_cell_angle_alpha 90.804(29)
_cell_angle_beta 114.794(13)
_cell_angle_gamma 89.442(20)
_cell_volume 266.81
_cell_formula_units_Z 1
_space_group_name_H-M_alt 'P 1'
_space_group_IT_number 1
loop_
_space_group_symop_id
_space_group_symop_operation_xyz
1 'x, y, z'
loop_
_atom_type_symbol
_atom_type_oxidation_number
Li1+ 1
Si4+ 4
Al3+ 3
O2- -2
H1+ 1
loop_
_atom_site_label
_atom_site_type_symbol
_atom_site_symmetry_multiplicity
_atom_site_Wyckoff_symbol
_atom_site_fract_x
_atom_site_fract_y
_atom_site_fract_z
_atom_site_B_iso_or_equiv
_atom_site_occupancy
Li1 Li1+ 1 a 0.2982 0.3199 0.1751 . 1.
Li2 Li1+ 1 a 0.6555 0.8082 0.8008 . 1.
Si1 Si4+ 1 a 0.0875 0.7992 0.0723 . 1.
Si2 Si4+ 1 a 0.0857 0.8384 0.4885 . 1.
Si3 Si4+ 1 a 0.8606 0.3324 0.4513 . 1.
Si4 Si4+ 1 a 0.5999 0.3498 0.0468 . 1.
Al1 Al3+ 1 a 0.35 0.8508 0.9069 . 1.
Al2 Al3+ 1 a 0.8677 0.2957 0.8793 . 1.
O1 O2- 1 a 0.2411 0.6696 0.0283 . 1.
O2 O2- 1 a 0.0674 0.1378 0.0398 . 1.
O3 O2- 1 a 0.1467 0.7072 0.3055 . 1.
O4 O2- 1 a 0.0085 0.5745 0.5688 . 1.
O5 O2- 1 a 0.2398 0.992 0.6632 . 1.
O6 O2- 1 a 0.4527 0.143 0.0773 . 1.
O7 O2- 1 a 0.6992 0.1697 0.9384 . 1.
O8 O2- 1 a 0.8984 0.6534 0.9328 . 1.
O9 O2- 1 a 0.8008 0.2102 0.6157 . 1.
O10 O2- 1 a 0.9351 0.071 0.3586 . 1.
O11 O2- 1 a 0.7098 0.4896 0.2576 . 1.
O12 O2- 1 a 0.5004 0.6064 0.8938 . 1.
O13 O2- 1 a 0.4031 0.2613 0.4661 . 1.
O14 O2- 1 a 0.5533 0.7582 0.5047 . 1.
H1 H1+ 1 a 0.3385 0.2245 0.5456 . 1.
H2 H1+ 1 a 0.4725 0.0907 0.4828 . 1.
H3 H1+ 1 a 0.6213 0.7397 0.4272 . 1.
H4 H1+ 1 a 0.4943 0.5769 0.4872 . 1.
#End of TTdata_117160-ICSD