
#(C) 2024 by FIZ Karlsruhe - Leibniz Institute for Information Infrastructure.  All rights reserved.
data_245254-ICSD
_database_code_ICSD 245254
_audit_creation_date 2007-08-01
_chemical_name_common 'Barium strontium iridium(V) oxide (3/1/2/9)'
_chemical_formula_structural 'Ba Sr (Ir2 Ba2) O9'
_chemical_formula_sum 'Ba3 Ir2 O9 Sr1'
_chemical_name_structure_type SrIrO3
_exptl_crystal_density_diffrn 7.29
_citation_title

;
Crystal structures and magnetic properties of 6H-perovskite-type oxides Ba3 M
Ir2 O9 (M = Mg, Ca, Sc, Ti, Zn, Sr, Zr, Cd and In)
;
loop_
_citation_id
_citation_journal_full
_citation_year
_citation_journal_volume
_citation_page_first
_citation_page_last
_citation_journal_id_ASTM
primary 'Journal of Solid State Chemistry' 2006 179 2595 2601 JSSCBI
loop_
_citation_author_citation_id
_citation_author_name
primary 'Sakamoto, T.'
primary 'Doi, Y.'
primary 'Hinatsu, Y.'
_cell_length_a 5.9988(1)
_cell_length_b 10.3305(3)
_cell_length_c 15.1652(4)
_cell_angle_alpha 90
_cell_angle_beta 92.423(1)
_cell_angle_gamma 90
_cell_volume 938.96
_cell_formula_units_Z 4
_space_group_name_H-M_alt 'C 1 2/c 1'
_space_group_IT_number 15
loop_
_space_group_symop_id
_space_group_symop_operation_xyz
1 'x, -y, z+1/2'
2 '-x, -y, -z'
3 '-x, y, -z+1/2'
4 'x, y, z'
5 'x+1/2, -y+1/2, z+1/2'
6 '-x+1/2, -y+1/2, -z'
7 '-x+1/2, y+1/2, -z+1/2'
8 'x+1/2, y+1/2, z'
loop_
_atom_type_symbol
_atom_type_oxidation_number
Ba2+ 2
Sr2+ 2
Ir5+ 5
O2- -2
loop_
_atom_site_label
_atom_site_type_symbol
_atom_site_symmetry_multiplicity
_atom_site_Wyckoff_symbol
_atom_site_fract_x
_atom_site_fract_y
_atom_site_fract_z
_atom_site_B_iso_or_equiv
_atom_site_occupancy
Ba1 Ba2+ 4 e 0 -0.0065(3) 0.25 0.20(8) 1.
Ba2 Ba2+ 8 f 0.0119(3) 0.3335(3) 0.0980(1) 0.74(6) 1.
Sr1 Sr2+ 4 a 0 0 0 0.2(1) 1.
Ir1 Ir5+ 8 f -0.0241(2) 0.3350(2) 0.8399(1) 0.05(4) 1.
O1 O2- 4 e 0 0.515(3) 0.25 1.2(2) 1.
O2 O2- 8 f 0.287(3) 0.236(1) 0.237(1) 1.2(2) 1.
O3 O2- 8 f 0.044(2) 0.826(2) 0.097(1) 1.2(2) 1.
O4 O2- 8 f 0.328(3) 0.088(2) 0.075(1) 1.2(2) 1.
O5 O2- 8 f 0.786(2) 0.087(1) 0.111(1) 1.2(2) 1.
#End of TTdata_245254-ICSD