
#(C) 2024 by FIZ Karlsruhe - Leibniz Institute for Information Infrastructure.  All rights reserved.
data_609807-ICSD
_database_code_ICSD 609807
_audit_creation_date 2020-08-01
_chemical_name_common 'Americium(IV) sulfide'
_chemical_formula_structural 'Am S2'
_chemical_formula_sum 'Am1 S2'
_chemical_name_structure_type PrOI
_exptl_crystal_density_diffrn 8.24
_citation_title 'Americium disulfide and diselenide'
_publ_section_comment 'Cell and Type only determined'
loop_
_citation_id
_citation_journal_full
_citation_year
_citation_journal_volume
_citation_page_first
_citation_page_last
_citation_journal_id_ASTM
primary 'Inorganic and Nuclear Chemistry Letters' 1971 7 685 688 INUCAF
loop_
_citation_author_citation_id
_citation_author_name
primary 'Damien, D.'
primary 'Jove, J.'
_cell_length_a 3.938(2)
_cell_length_b 3.938(2)
_cell_length_c 7.981(5)
_cell_angle_alpha 90.
_cell_angle_beta 90.
_cell_angle_gamma 90.
_cell_volume 123.77
_cell_formula_units_Z 2
_space_group_name_H-M_alt 'P 4/n m m Z'
_space_group_IT_number 129
loop_
_space_group_symop_id
_space_group_symop_operation_xyz
1 'y+1/2, x+1/2, -z'
2 '-y, x+1/2, -z'
3 'y+1/2, -x, -z'
4 '-y, -x, -z'
5 'x+1/2, y+1/2, -z'
6 '-x, y+1/2, -z'
7 'x+1/2, -y, -z'
8 '-x, -y, -z'
9 '-y+1/2, -x+1/2, z'
10 'y, -x+1/2, z'
11 '-y+1/2, x, z'
12 'y, x, z'
13 '-x+1/2, -y+1/2, z'
14 'x, -y+1/2, z'
15 '-x+1/2, y, z'
16 'x, y, z'
loop_
_atom_type_symbol
_atom_type_oxidation_number
S2- -2
Am4+ 4
S2- -2
loop_
_atom_site_label
_atom_site_type_symbol
_atom_site_symmetry_multiplicity
_atom_site_Wyckoff_symbol
_atom_site_fract_x
_atom_site_fract_y
_atom_site_fract_z
_atom_site_B_iso_or_equiv
_atom_site_occupancy
S1 S2- 2 a 0.75 0.25 0 . 1.
Am1 Am4+ 2 c 0.25 0.25 0.283 . 1.
S2 S2- 2 c 0.25 0.25 0.641 . 1.
#End of TTdata_609807-ICSD