
#(C) 2024 by FIZ Karlsruhe - Leibniz Institute for Information Infrastructure.  All rights reserved.
data_262989-ICSD
_database_code_ICSD 262989
_audit_creation_date 2013-02-01
_chemical_name_common 'Cerium titanium oxide (0.975/2/5.95)'
_chemical_formula_structural 'Ce0.975 Ti2 O5.95'
_chemical_formula_sum 'Ce0.975 O5.95 Ti2'
_chemical_name_structure_type ThTi2O6
_exptl_crystal_density_diffrn 4.91
_citation_title

;
Crystal structure and non-stoichiometry of cerium brannerite: Ce0.975 Ti2
O5.95
;
loop_
_citation_id
_citation_journal_full
_citation_year
_citation_journal_volume
_citation_page_first
_citation_page_last
_citation_journal_id_ASTM
primary 'Journal of Solid State Chemistry' 2012 192 172 178 JSSCBI
loop_
_citation_author_citation_id
_citation_author_name
primary 'Stennett, M.C.'
primary 'Freeman, C.L.'
primary 'Gandy, A.S.'
primary 'Hyatt, N.C.'
_cell_length_a 9.8320(1)
_cell_length_b 3.75287(6)
_cell_length_c 6.8852(1)
_cell_angle_alpha 90
_cell_angle_beta 119.230(1)
_cell_angle_gamma 90
_cell_volume 221.7
_cell_formula_units_Z 2
_space_group_name_H-M_alt 'C 1 2/m 1'
_space_group_IT_number 12
loop_
_space_group_symop_id
_space_group_symop_operation_xyz
1 '-x, y, -z'
2 '-x, -y, -z'
3 'x, -y, z'
4 'x, y, z'
5 '-x+1/2, y+1/2, -z'
6 '-x+1/2, -y+1/2, -z'
7 'x+1/2, -y+1/2, z'
8 'x+1/2, y+1/2, z'
loop_
_atom_type_symbol
_atom_type_oxidation_number
Ce4+ 4
Ti4+ 4
O2- -2
loop_
_atom_site_label
_atom_site_type_symbol
_atom_site_symmetry_multiplicity
_atom_site_Wyckoff_symbol
_atom_site_fract_x
_atom_site_fract_y
_atom_site_fract_z
_atom_site_U_iso_or_equiv
_atom_site_occupancy
Ce1 Ce4+ 2 a 0 0 0 0.0122 0.976(3)
Ti1 Ti4+ 4 i 0.8246(3) 0 0.3907(4) 0.008 1.
O1 O2- 4 i 0.9775(1) 0 0.3077(2) 0.0136 0.976(3)
O2 O2- 4 i 0.6519(2) 0 0.1026(3) 0.0185 1.
O3 O2- 4 i 0.2793(2) 0 0.4032(2) 0.0153 1.
loop_
_atom_site_aniso_label
_atom_site_aniso_type_symbol
_atom_site_aniso_U_11
_atom_site_aniso_U_22
_atom_site_aniso_U_33
_atom_site_aniso_U_12
_atom_site_aniso_U_13
_atom_site_aniso_U_23
Ce1 Ce4+ 0.0210(15) 0.0126(15) 0.0097(15) 0. 0.0095(14) 0.
Ti1 Ti4+ 0.0126(13) 0.0114(11) 0.0066(10) 0. 0.0082(1) 0.
O1 O2- 0.0037(10) 0.0260(9) 0.0091(10) 0. 0.0018(7) 0.
O2 O2- 0.0146(9) 0.0153(9) 0.0192(9) 0. 0.0023(6) 0.
O3 O2- 0.0233(9) 0.0082(7) 0.0271(9) 0. 0.0213(6) 0.
#End of TTdata_262989-ICSD