
#(C) 2024 by FIZ Karlsruhe - Leibniz Institute for Information Infrastructure.  All rights reserved.
data_415939-ICSD
_database_code_ICSD 415939
_audit_creation_date 2024-02-01
_chemical_name_common 'Dilithium hydrogenphosphate(III) hydrate'
_chemical_formula_structural 'Li2 (H P O3) (H2 O)'
_chemical_formula_sum 'H3 Li2 O4 P1'
_chemical_name_structure_type Li2(HPO3)(H2O)
_exptl_crystal_density_diffrn 1.93
_diffrn_ambient_temperature 173.
_citation_title
'Li$_2$HPO$_3$ $\cdot$ H$_2$O: Crystal structure and IR spectrum'
loop_
_citation_id
_citation_journal_full
_citation_year
_citation_journal_volume
_citation_page_first
_citation_page_last
_citation_journal_id_ASTM
primary 'Journal of Chemical Crystallography' 2010 40 526 530 JCCYEV
loop_
_citation_author_citation_id
_citation_author_name
primary 'Chaouche, Souad'
primary 'Ouarsal, Rachid'
primary 'El Bali, Brahim'
primary 'Lachkar, Mohammed'
primary 'Bolte, Michael'
primary 'Dusek, Michal'
_cell_length_a 5.0322(9)
_cell_length_b 8.9795(17)
_cell_length_c 17.088(4)
_cell_angle_alpha 90.
_cell_angle_beta 92.672(16)
_cell_angle_gamma 90.
_cell_volume 771.3
_cell_formula_units_Z 8
_space_group_name_H-M_alt 'P 1 21/c 1'
_space_group_IT_number 14
loop_
_space_group_symop_id
_space_group_symop_operation_xyz
1 'x, -y+1/2, z+1/2'
2 '-x, -y, -z'
3 '-x, y+1/2, -z+1/2'
4 'x, y, z'
loop_
_atom_type_symbol
_atom_type_oxidation_number
P3+ 3
H1+ 1
P3+ 3
H1+ 1
O2- -2
Li1+ 1
O2- -2
H1+ 1
O2- -2
H1+ 1
loop_
_atom_site_label
_atom_site_type_symbol
_atom_site_symmetry_multiplicity
_atom_site_Wyckoff_symbol
_atom_site_fract_x
_atom_site_fract_y
_atom_site_fract_z
_atom_site_U_iso_or_equiv
_atom_site_occupancy
P1 P3+ 4 e 0.30201(8) 0.98763(4) 0.40024(2) 0.01050(16) 1
H1 H1+ 4 e 0.215(4) 0.9733(19) 0.3301(12) 0.013 1
P2 P3+ 4 e 0.80352(8) 0.49823(4) 0.39276(2) 0.01084(16) 1
H2 H1+ 4 e 0.740(4) 0.4875(18) 0.3210(12) 0.013 1
O1 O2- 4 e 0.1891(2) 1.13211(12) 0.43248(7) 0.0133(3) 1
O2 O2- 4 e 0.6033(2) 0.99205(11) 0.39906(7) 0.0139(3) 1
O3 O2- 4 e 0.1968(2) 0.85253(12) 0.44295(7) 0.0128(3) 1
O4 O2- 4 e 0.6804(2) 0.63821(12) 0.42387(7) 0.0167(3) 1
O5 O2- 4 e 1.1055(2) 0.50034(11) 0.39910(7) 0.0142(3) 1
O6 O2- 4 e 0.6855(2) 0.35818(12) 0.42846(6) 0.0127(3) 1
Li1 Li1+ 4 e 0.3212(6) 0.6468(3) 0.45360(17) 0.0157(6) 1
Li2 Li1+ 4 e 0.3117(6) 0.3215(3) 0.39082(17) 0.0175(6) 1
Li3 Li1+ 4 e 0.8069(6) 0.1566(3) 0.44044(17) 0.0148(6) 1
Li4 Li1+ 4 e 0.8044(6) 0.8303(3) 0.44795(17) 0.0156(6) 1
O7 O2- 4 e 0.2841(3) 0.29142(15) 0.27536(8) 0.0224(3) 1
H3 H1+ 4 e 0.412(6) 0.247(3) 0.2576(16) 0.039(7) 1
H4 H1+ 4 e 0.145(7) 0.247(3) 0.2598(18) 0.061(10) 1
O8 O2- 4 e 0.2320(3) 0.63645(16) 0.25170(9) 0.0232(3) 1
H5 H1+ 4 e 0.221(6) 0.593(3) 0.2912(18) 0.048(8) 1
H6 H1+ 4 e 0.264(7) 0.570(3) 0.219(2) 0.061(9) 1
loop_
_atom_site_aniso_label
_atom_site_aniso_type_symbol
_atom_site_aniso_U_11
_atom_site_aniso_U_22
_atom_site_aniso_U_33
_atom_site_aniso_U_12
_atom_site_aniso_U_13
_atom_site_aniso_U_23
P1 P3+ 0.0100(3) 0.0099(2) 0.0116(2) -0.00008(15) 0.00027(16) 0.00007(14)
P2 P3+ 0.0096(3) 0.0101(2) 0.0127(2) -0.00020(15) 0.00004(16) 0.00042(14)
O1 O2- 0.0132(7) 0.0108(5) 0.0160(6) 0.0009(4) 0.0019(5) 0.0001(4)
O2 O2- 0.0116(7) 0.0131(6) 0.0170(6) -0.0004(4) 0.0017(4) 0.0001(4)
O3 O2- 0.0119(7) 0.0112(5) 0.0153(6) -0.0009(4) 0.0014(4) 0.0005(4)
O4 O2- 0.0121(7) 0.0108(5) 0.0274(7) 0.0006(5) 0.0033(5) -0.0012(4)
O5 O2- 0.0109(7) 0.0139(6) 0.0178(6) -0.0003(4) 0.0015(4) -0.0008(4)
O6 O2- 0.0115(7) 0.0109(5) 0.0157(6) -0.0006(4) 0.0006(5) 0.0011(4)
Li1 Li1+ 0.0125(15) 0.0134(12) 0.0212(15) -0.0005(11) 0.0000(11) -0.0015(11)
Li2 Li1+ 0.0151(17) 0.0143(13) 0.0228(16) 0.0003(11) -0.0002(12) 0.0003(10)
Li3 Li1+ 0.0130(16) 0.0112(12) 0.0204(14) 0.0006(10) 0.0013(11) 0.0003(10)
Li4 Li1+ 0.0133(16) 0.0112(12) 0.0222(15) 0.0002(10) 0.0001(11) 0.0016(10)
O7 O2- 0.0244(9) 0.0222(6) 0.0208(7) 0.0008(6) 0.0034(6) -0.0032(5)
O8 O2- 0.0240(8) 0.0243(7) 0.0215(8) -0.0004(6) 0.0031(6) 0.0049(6)
#End of TTdata_415939-ICSD