
#(C) 2024 by FIZ Karlsruhe - Leibniz Institute for Information Infrastructure.  All rights reserved.
data_85753-ICSD
_database_code_ICSD 85753
_audit_creation_date 1999-11-30
_chemical_name_common 'Ammonium aquahydroxobis(phosphato(V))divandate dihydrate'
_chemical_formula_structural '(N H4) (V2 (O H) (P O4)2 (H2 O)) (H2 O)'
_chemical_formula_sum 'H9 N1 O11 P2 V2'
_chemical_name_structure_type Leucophosphite#KFe2(PO4)2OH(H2O)2
_exptl_crystal_density_diffrn 2.64
_citation_title

;
Hydrothermal synthesis and structural characterization of the
three-dimensional framework solids (N H4) (V2 (O H) (P O4)2 (H2 O)) . (H2 O)
and Rb6 ((Mo9 V3 O6) (P O4)10 (H2 P O4)3 (O H)9) . 8.5(H2 O)
;
loop_
_citation_id
_citation_journal_full
_citation_year
_citation_journal_volume
_citation_page_first
_citation_page_last
_citation_journal_id_ASTM
primary 'Inorganica Chimica Acta' 1998 275 122 129 ICHAA3
loop_
_citation_author_citation_id
_citation_author_name
primary 'Soghomonian, V.'
primary 'Meyer, L.A.'
primary 'Haushalter, R.C.'
primary 'Zubieta, J.'
_cell_length_a 9.803(2)
_cell_length_b 9.688(2)
_cell_length_c 9.858(2)
_cell_angle_alpha 90.
_cell_angle_beta 102.91(3)
_cell_angle_gamma 90.
_cell_volume 912.56
_cell_formula_units_Z 4
_space_group_name_H-M_alt 'P 1 21/n 1'
_space_group_IT_number 14
loop_
_space_group_symop_id
_space_group_symop_operation_xyz
1 '-x+1/2, y+1/2, -z+1/2'
2 '-x, -y, -z'
3 'x+1/2, -y+1/2, z+1/2'
4 'x, y, z'
loop_
_atom_type_symbol
_atom_type_oxidation_number
V3+ 3
P5+ 5
O2- -2
N3- -3
H1+ 1
loop_
_atom_site_label
_atom_site_type_symbol
_atom_site_symmetry_multiplicity
_atom_site_Wyckoff_symbol
_atom_site_fract_x
_atom_site_fract_y
_atom_site_fract_z
_atom_site_U_iso_or_equiv
_atom_site_occupancy
V1 V3+ 4 e 0.1855(1) 0.2297(1) 0.4033(1) 0.006(1) 1.
V2 V3+ 4 e 0.6270(1) -0.0448(1) 0.1062(1) 0.006(1) 1.
P1 P5+ 4 e 0.3503(2) 0.0299(2) 0.2052(2) 0.005(1) 1.
P2 P5+ 4 e 0.8683(2) 0.1824(2) 0.2106(2) 0.006(1) 1.
O1 O2- 4 e 0.0595(4) 0.3571(4) 0.5020(4) 0.008(1) 1.
O2 O2- 4 e 0.2193(5) 0.3871(4) 0.2918(5) 0.009(1) 1.
O3 O2- 4 e 0.3185(4) 0.1207(5) 0.3188(4) 0.009(1) 1.
O4 O2- 4 e 0.3424(4) 0.2653(5) 0.5602(4) 0.011(1) 1.
O5 O2- 4 e 0.0260(4) 0.1640(5) 0.2645(4) 0.009(1) 1.
O6 O2- 4 e 0.1542(5) 0.0495(5) 0.5087(5) 0.017(1) 1.
O7 O2- 4 e 0.2002(4) 0.5942(5) 0.4413(4) 0.009(1) 1.
O8 O2- 4 e -0.0114(4) 0.5083(5) 0.2639(4) 0.009(1) 1.
O9 O2- 4 e 0.6963(4) 0.7788(5) 0.1986(5) 0.011(1) 1.
O10 O2- 4 e 0.6988(4) 0.5374(5) 0.2859(4) 0.009(1) 1.
O11 O2- 4 e -0.0332(5) 0.1498(5) 0.6851(5) 0.019(1) 1.
N1 N3- 4 e 0.6036(6) 0.1827(7) 0.4889(6) 0.033(1) 1.
#End of TTdata_85753-ICSD