
#(C) 2024 by FIZ Karlsruhe - Leibniz Institute for Information Infrastructure.  All rights reserved.
data_245252-ICSD
_database_code_ICSD 245252
_audit_creation_date 2007-08-01
_audit_update_record 2013-02-01
_chemical_name_common 'Barium zincum iridium(V) oxide (3/1/2/9)'
_chemical_formula_structural 'Ba Mg (Ir2 Ba2) O9'
_chemical_formula_sum 'Ba3 Ir2 Mg1 O9'
_chemical_name_structure_type Perovskite#BaFeO3-x
_exptl_crystal_density_diffrn 7.77
_citation_title

;
Crystal structures and magnetic properties of 6H-perovskite-type oxides Ba3 M
Ir2 O9 (M = Mg, Ca, Sc, Ti, Zn, Sr, Zr, Cd and In)
;
loop_
_citation_id
_citation_journal_full
_citation_year
_citation_journal_volume
_citation_page_first
_citation_page_last
_citation_journal_id_ASTM
primary 'Journal of Solid State Chemistry' 2006 179 2595 2601 JSSCBI
loop_
_citation_author_citation_id
_citation_author_name
primary 'Sakamoto, T.'
primary 'Doi, Y.'
primary 'Hinatsu, Y.'
_cell_length_a 5.7719(1)
_cell_length_b 5.7719(1)
_cell_length_c 14.3213(2)
_cell_angle_alpha 90.
_cell_angle_beta 90.
_cell_angle_gamma 120.
_cell_volume 413.19
_cell_formula_units_Z 2
_space_group_name_H-M_alt 'P 63/m m c'
_space_group_IT_number 194
loop_
_space_group_symop_id
_space_group_symop_operation_xyz
1 'x, x-y, -z+1/2'
2 '-x+y, y, -z+1/2'
3 '-y, -x, -z+1/2'
4 '-x+y, -x, -z+1/2'
5 '-y, x-y, -z+1/2'
6 'x, y, -z+1/2'
7 '-x, -x+y, z+1/2'
8 'x-y, -y, z+1/2'
9 'y, x, z+1/2'
10 'x-y, x, z+1/2'
11 'y, -x+y, z+1/2'
12 '-x, -y, z+1/2'
13 '-x, -x+y, -z'
14 'x-y, -y, -z'
15 'y, x, -z'
16 'x-y, x, -z'
17 'y, -x+y, -z'
18 '-x, -y, -z'
19 'x, x-y, z'
20 '-x+y, y, z'
21 '-y, -x, z'
22 '-x+y, -x, z'
23 '-y, x-y, z'
24 'x, y, z'
loop_
_atom_type_symbol
_atom_type_oxidation_number
Ba2+ 2
Mg2+ 2
Ir5+ 5
O2- -2
loop_
_atom_site_label
_atom_site_type_symbol
_atom_site_symmetry_multiplicity
_atom_site_Wyckoff_symbol
_atom_site_fract_x
_atom_site_fract_y
_atom_site_fract_z
_atom_site_B_iso_or_equiv
_atom_site_occupancy
Ba1 Ba2+ 2 b 0 0 0.25 0.43(3) 1.
Ba2 Ba2+ 4 f 0.3333 0.6667 0.9120(1) 0.46(3) 1.
Mg1 Mg2+ 2 a 0 0 0 0.10(7) 1.
Ir1 Ir5+ 4 f 0.3333 0.6667 0.1541(1) 0.20(2) 1.
O1 O2- 6 h 0.4810(7) 0.962 0.25 0.76(10) 1.
O2 O2- 12 k 0.1687(6) 0.3374 0.4181(3) 0.76(10) 1.
#End of TTdata_245252-ICSD