
#(C) 2024 by FIZ Karlsruhe - Leibniz Institute for Information Infrastructure.  All rights reserved.
data_191676-ICSD
_database_code_ICSD 191676
_audit_creation_date 2014-08-01
_chemical_name_common 'Holmium nickel germanide (3/1/2)'
_chemical_formula_structural 'Ho3 Ni Ge2'
_chemical_formula_sum 'Ge2 Ho3 Ni1'
_chemical_name_structure_type Aikinite#CuPbBiS3
_exptl_crystal_density_diffrn 8.87
_diffrn_ambient_temperature 298.
_citation_title 'Magnetic order of the La3 Ni Ge2 - type Ho3 Ni Ge2'
loop_
_citation_id
_citation_journal_full
_citation_year
_citation_journal_volume
_citation_page_first
_citation_page_last
_citation_journal_id_ASTM
primary 'Journal of Magnetism and Magnetic Materials' 2014 360 200 204 JMMMDC
loop_
_citation_author_citation_id
_citation_author_name
primary 'Morozkin, A.V.'
primary 'Yao, Jinlei'
primary 'Yuan, Fang'
primary 'Mozharivskyj, Y.'
primary 'Isnard, O.'
_cell_length_a 11.2991(6)
_cell_length_b 4.1530(2)
_cell_length_c 11.1466(6)
_cell_angle_alpha 90.
_cell_angle_beta 90.
_cell_angle_gamma 90.
_cell_volume 523.06
_cell_formula_units_Z 4
_space_group_name_H-M_alt 'P n m a'
_space_group_IT_number 62
loop_
_space_group_symop_id
_space_group_symop_operation_xyz
1 'x+1/2, y, -z+1/2'
2 'x, -y+1/2, z'
3 '-x+1/2, y+1/2, z+1/2'
4 '-x, -y, -z'
5 '-x+1/2, -y, z+1/2'
6 '-x, y+1/2, -z'
7 'x+1/2, -y+1/2, -z+1/2'
8 'x, y, z'
loop_
_atom_type_symbol
_atom_type_oxidation_number
Ho0+ 0
Ni0+ 0
Ge0+ 0
loop_
_atom_site_label
_atom_site_type_symbol
_atom_site_symmetry_multiplicity
_atom_site_Wyckoff_symbol
_atom_site_fract_x
_atom_site_fract_y
_atom_site_fract_z
_atom_site_B_iso_or_equiv
_atom_site_occupancy
Ho1 Ho0+ 4 c 0.3775(3) 0.25 0.4411(3) . 1.
Ho2 Ho0+ 4 c 0.0532(3) 0.25 0.3746(3) . 1.
Ho3 Ho0+ 4 c 0.2117(3) 0.25 0.7007(5) . 1.
Ni1 Ni0+ 4 c 0.1243(7) 0.25 0.1279(7) . 1.
Ge1 Ge0+ 4 c 0.4813(5) 0.25 0.6805(6) . 1.
Ge2 Ge0+ 4 c 0.3093(5) 0.25 0.0077(7) . 1.
loop_
_atom_site_aniso_label
_atom_site_aniso_type_symbol
_atom_site_aniso_beta_11
_atom_site_aniso_beta_22
_atom_site_aniso_beta_33
_atom_site_aniso_beta_12
_atom_site_aniso_beta_13
_atom_site_aniso_beta_23
Ho1 Ho0+ 0.001957 0.014495 0.002012 0. 0. 0.
Ho2 Ho0+ 0.001957 0.014495 0.002012 0. 0. 0.
Ho3 Ho0+ 0.001957 0.014495 0.002012 0. 0. 0.
Ni1 Ni0+ 0.001957 0.014495 0.002012 0. 0. 0.
Ge1 Ge0+ 0.001957 0.014495 0.002012 0. 0. 0.
Ge2 Ge0+ 0.001957 0.014495 0.002012 0. 0. 0.
#End of TTdata_191676-ICSD