
#(C) 2024 by FIZ Karlsruhe - Leibniz Institute for Information Infrastructure.  All rights reserved.
data_189789-ICSD
_database_code_ICSD 189789
_audit_creation_date 2014-02-01
_chemical_name_common 'Dibismuth niobium pentaoxide fluoride'
_chemical_formula_structural 'Bi2 Nb O5 F'
_chemical_formula_sum 'Bi2 F1 Nb1 O5'
_chemical_name_structure_type Russelite#Bi2WO6
_exptl_crystal_density_diffrn 8.25
_diffrn_ambient_temperature 295.
_citation_title

;
Crystal structure and electrical characterization of Bi2 Nb O5 F: an
Aurivillius oxide fluoride
;
loop_
_citation_id
_citation_journal_full
_citation_year
_citation_journal_volume
_citation_page_first
_citation_page_last
_citation_journal_id_ASTM
primary 'Journal of Materials Chemistry' 2007 17 1193 1200 JMACEP
loop_
_citation_author_citation_id
_citation_author_name
primary 'McCabe, E.E.'
primary 'Jones, I.P.'
primary 'Zhang, D.'
primary 'Hyatt, N.C.'
primary 'Greaves, C.'
_cell_length_a 5.427(2)
_cell_length_b 16.658(2)
_cell_length_c 5.428(2)
_cell_angle_alpha 90.
_cell_angle_beta 90.
_cell_angle_gamma 90.
_cell_volume 490.71
_cell_formula_units_Z 4
_space_group_name_H-M_alt 'P c a 21'
_space_group_IT_number 29
loop_
_space_group_symop_id
_space_group_symop_operation_xyz
1 'x+1/2, -y, z'
2 '-x+1/2, y, z+1/2'
3 '-x, -y, z+1/2'
4 'x, y, z'
loop_
_atom_type_symbol
_atom_type_oxidation_number
Bi3+ 3
Nb5+ 5
O2- -2
F1- -1
O2- -2
F1- -1
O2- -2
F1- -1
O2- -2
F1- -1
O2- -2
F1- -1
O2- -2
F1- -1
loop_
_atom_site_label
_atom_site_type_symbol
_atom_site_symmetry_multiplicity
_atom_site_Wyckoff_symbol
_atom_site_fract_x
_atom_site_fract_y
_atom_site_fract_z
_atom_site_U_iso_or_equiv
_atom_site_occupancy
Bi1 Bi3+ 4 a 0.511(3) 0.4228(5) 0.000(5) 0.008(3) 1.
Bi2 Bi3+ 4 a 0.479(3) 0.0748(6) 0.991(4) 0.022(4) 1.
Nb1 Nb5+ 4 a -0.009(4) 0.2464(9) 0 0.009(2) 1.
O1 O2- 4 a 0.004(5) 0.134(2) 0.063(5) 0.028(3) 0.8333
F1 F1- 4 a 0.004(5) 0.134(2) 0.063(5) 0.028(3) 0.1667
O2 O2- 4 a 0.244(4) 0.999(1) 0.254(7) 0.003(2) 0.8333
F2 F1- 4 a 0.244(4) 0.999(1) 0.254(7) 0.003(2) 0.1667
O3 O2- 4 a 0.264(4) 0.5059(9) 0.254(5) 0.003(2) 0.8333
F3 F1- 4 a 0.264(4) 0.5059(9) 0.254(5) 0.003(2) 0.1667
O4 O2- 4 a 0.713(4) 0.2288(8) 0.227(5) 0.026(3) 0.8333
F4 F1- 4 a 0.713(4) 0.2288(8) 0.227(5) 0.026(3) 0.1667
O5 O2- 4 a 0.210(4) 0.249(1) 0.310(5) 0.026(3) 0.8333
F5 F1- 4 a 0.210(4) 0.249(1) 0.310(5) 0.026(3) 0.1667
O6 O2- 4 a 0.539(5) 0.3685(9) 0.525(6) 0.028(3) 0.8333
F6 F1- 4 a 0.539(5) 0.3685(9) 0.525(6) 0.028(3) 0.1667
#End of TTdata_189789-ICSD