
#(C) 2024 by FIZ Karlsruhe - Leibniz Institute for Information Infrastructure.  All rights reserved.
data_419308-ICSD
_database_code_ICSD 419308
_audit_creation_date 2009-02-01
_audit_update_record 2012-02-01
_chemical_name_common 'Barium silicide (3/4)'
_chemical_formula_structural 'Ba3 Si4'
_chemical_formula_sum 'Ba3 Si4'
_chemical_name_structure_type Ba3Ge4
_exptl_crystal_density_diffrn 4.05
_diffrn_ambient_temperature 295.
_citation_title

;
The metallic Zintl phase Ba3 Si4 - Synthesis, crystal structure, chemical
bonding, and physical properties
;
loop_
_citation_id
_citation_journal_full
_citation_year
_citation_journal_volume
_citation_page_first
_citation_page_last
_citation_journal_id_ASTM
primary 'Zeitschrift fuer Anorganische und Allgemeine Chemie (1950) (DE)' 2008
634 1651 1661 ZAACAB
loop_
_citation_author_citation_id
_citation_author_name
primary 'Aydemir, U.'
primary 'Ormeci, A.'
primary 'Borrmann, H.'
primary 'Boehme, B.'
primary 'Zuercher, F.'
primary 'Uslu, B.'
primary 'Goebel, T.'
primary 'Schnelle, W.'
primary 'Simon, P.'
primary 'Carrillo Cabrera, W.'
primary 'Haarmann, F.'
primary 'Baitinger, M.'
primary 'Nesper, R.'
primary 'von Schnering, H.G.'
primary "Grin', Yu. (Hrin', Yu."
primary ' Grin, Yu.'
primary ' Hrin, Yu.)'
_cell_length_a 8.5233(3)
_cell_length_b 8.5233(3)
_cell_length_c 11.8322(6)
_cell_angle_alpha 90.
_cell_angle_beta 90.
_cell_angle_gamma 90.
_cell_volume 859.57
_cell_formula_units_Z 4
_space_group_name_H-M_alt 'P 42/m n m'
_space_group_IT_number 136
loop_
_space_group_symop_id
_space_group_symop_operation_xyz
1 '-y+1/2, x+1/2, -z+1/2'
2 'y+1/2, -x+1/2, -z+1/2'
3 'y, x, -z'
4 '-y, -x, -z'
5 'y+1/2, -x+1/2, z+1/2'
6 '-y+1/2, x+1/2, z+1/2'
7 '-y, -x, z'
8 'y, x, z'
9 'x+1/2, -y+1/2, -z+1/2'
10 '-x+1/2, y+1/2, -z+1/2'
11 'x, y, -z'
12 '-x, -y, -z'
13 '-x+1/2, y+1/2, z+1/2'
14 'x+1/2, -y+1/2, z+1/2'
15 '-x, -y, z'
16 'x, y, z'
loop_
_atom_type_symbol
_atom_type_oxidation_number
Ba0+ 0
Si0+ 0
loop_
_atom_site_label
_atom_site_type_symbol
_atom_site_symmetry_multiplicity
_atom_site_Wyckoff_symbol
_atom_site_fract_x
_atom_site_fract_y
_atom_site_fract_z
_atom_site_U_iso_or_equiv
_atom_site_occupancy
Ba1 Ba0+ 4 f 0.335148(7) 0.335148(7) 0. 0.01466(2) 1
Ba2 Ba0+ 4 e 0. 0. 0.169633(6) 0.01031(1) 1
Ba3 Ba0+ 4 d 0. 0.5 0.25 0.01212(1) 1
Si1 Si0+ 8 i 0.90055(3) 0.30007(3) 0. 0.01134(4) 1
Si2 Si0+ 8 j 0.20077(3) 0.20077(3) 0.35403(3) 0.01359(5) 1
loop_
_atom_site_aniso_label
_atom_site_aniso_type_symbol
_atom_site_aniso_U_11
_atom_site_aniso_U_22
_atom_site_aniso_U_33
_atom_site_aniso_U_12
_atom_site_aniso_U_13
_atom_site_aniso_U_23
Ba1 Ba0+ 0.01296(2) 0.01296(2) 0.01805(3) -0.00047(2) 0. 0.
Ba2 Ba0+ 0.01111(2) 0.01111(2) 0.00871(2) 0.00067(2) 0. 0.
Ba3 Ba0+ 0.01186(2) 0.01186(2) 0.01264(3) 0. 0. 0.
Si1 Si0+ 0.01005(9) 0.01263(10) 0.01135(9) -0.00111(8) 0. 0.
Si2 Si0+ 0.01303(6) 0.01303(6) 0.01472(11) 0.00064(8) -0.00326(6) -0.00326(6)
#End of TTdata_419308-ICSD