
#(C) 2024 by FIZ Karlsruhe - Leibniz Institute for Information Infrastructure.  All rights reserved.
data_189788-ICSD
_database_code_ICSD 189788
_audit_creation_date 2014-02-01
_chemical_name_common 'Dibismuth niobium pentaoxide fluoride'
_chemical_formula_structural 'Bi2 Nb O5 F'
_chemical_formula_sum 'Bi2 F1 Nb1 O5'
_chemical_name_structure_type Ba2ZnF6
_exptl_crystal_density_diffrn 8.25
_diffrn_ambient_temperature 295.
_citation_title

;
Crystal structure and electrical characterization of Bi2 Nb O5 F: an
Aurivillius oxide fluoride
;
loop_
_citation_id
_citation_journal_full
_citation_year
_citation_journal_volume
_citation_page_first
_citation_page_last
_citation_journal_id_ASTM
primary 'Journal of Materials Chemistry' 2007 17 1193 1200 JMACEP
loop_
_citation_author_citation_id
_citation_author_name
primary 'McCabe, E.E.'
primary 'Jones, I.P.'
primary 'Zhang, D.'
primary 'Hyatt, N.C.'
primary 'Greaves, C.'
_cell_length_a 3.8373(4)
_cell_length_b 3.8373(4)
_cell_length_c 16.656(2)
_cell_angle_alpha 90.
_cell_angle_beta 90.
_cell_angle_gamma 90.
_cell_volume 245.26
_cell_formula_units_Z 2
_space_group_name_H-M_alt 'I 4/m m m'
_space_group_IT_number 139
loop_
_space_group_symop_id
_space_group_symop_operation_xyz
1 'y, x, -z'
2 '-y, -x, -z'
3 '-y, x, -z'
4 'y, -x, -z'
5 '-x, y, -z'
6 'x, -y, -z'
7 'x, y, -z'
8 '-x, -y, -z'
9 '-y, -x, z'
10 'y, x, z'
11 'y, -x, z'
12 '-y, x, z'
13 'x, -y, z'
14 '-x, y, z'
15 '-x, -y, z'
16 'x, y, z'
17 'y+1/2, x+1/2, -z+1/2'
18 '-y+1/2, -x+1/2, -z+1/2'
19 '-y+1/2, x+1/2, -z+1/2'
20 'y+1/2, -x+1/2, -z+1/2'
21 '-x+1/2, y+1/2, -z+1/2'
22 'x+1/2, -y+1/2, -z+1/2'
23 'x+1/2, y+1/2, -z+1/2'
24 '-x+1/2, -y+1/2, -z+1/2'
25 '-y+1/2, -x+1/2, z+1/2'
26 'y+1/2, x+1/2, z+1/2'
27 'y+1/2, -x+1/2, z+1/2'
28 '-y+1/2, x+1/2, z+1/2'
29 'x+1/2, -y+1/2, z+1/2'
30 '-x+1/2, y+1/2, z+1/2'
31 '-x+1/2, -y+1/2, z+1/2'
32 'x+1/2, y+1/2, z+1/2'
loop_
_atom_type_symbol
_atom_type_oxidation_number
Bi3+ 3
Nb5+ 5
O2- -2
F1- -1
O2- -2
F1- -1
O2- -2
F1- -1
loop_
_atom_site_label
_atom_site_type_symbol
_atom_site_symmetry_multiplicity
_atom_site_Wyckoff_symbol
_atom_site_fract_x
_atom_site_fract_y
_atom_site_fract_z
_atom_site_B_iso_or_equiv
_atom_site_occupancy
Bi1 Bi3+ 4 e 0 0 0.32627(1) . 1.
Nb1 Nb5+ 2 a 0. 0. 0. . 1.
O1 O2- 4 c 0 0.5 0 . 0.8333
F1 F1- 4 c 0 0.5 0 . 0.1667
O2 O2- 4 e 0 0 0.11798(2) . 0.8333
F2 F1- 4 e 0 0 0.11798(2) . 0.1667
O3 O2- 4 d 0 0.5 0.25 . 0.8333
F3 F1- 4 d 0 0.5 0.25 . 0.1667
loop_
_atom_site_aniso_label
_atom_site_aniso_type_symbol
_atom_site_aniso_U_11
_atom_site_aniso_U_22
_atom_site_aniso_U_33
_atom_site_aniso_U_12
_atom_site_aniso_U_13
_atom_site_aniso_U_23
Bi1 Bi3+ 0.021(1) 0.021(1) 0.018(2) 0. 0. 0.
Nb1 Nb5+ 0.009(1) 0.009(1) 0.021(3) 0. 0. 0.
O1 O2- 0.167(7) 0.008(3) 0.113(6) 0. 0. 0.
F1 F1- 0.167(7) 0.008(3) 0.113(6) 0. 0. 0.
O2 O2- 0.082(2) 0.082(2) 0.006(3) 0. 0. 0.
F2 F1- 0.082(2) 0.082(2) 0.006(3) 0. 0. 0.
O3 O2- 0.008(1) 0.008(1) 0.008(2) 0. 0. 0.
F3 F1- 0.008(1) 0.008(1) 0.008(2) 0. 0. 0.
#End of TTdata_189788-ICSD