
#(C) 2024 by FIZ Karlsruhe - Leibniz Institute for Information Infrastructure.  All rights reserved.
data_260217-ICSD
_database_code_ICSD 260217
_audit_creation_date 2009-08-01
_chemical_name_common 'Silver germanium neodymium sulfide (0.84/1/3/7)'
_chemical_formula_structural 'Ag0.84 Ge Nd3 S7'
_chemical_formula_sum 'Ag0.84 Ge1 Nd3 S7'
_chemical_name_structure_type CuLa3SiS7
_exptl_crystal_density_diffrn 5.25
_diffrn_ambient_temperature 295.
_citation_title

;
Ln3 M1 - T X7 - quasi - isostructural compounds: stereochemistry and silver -
ion motion in the Ln3 Ag1 - Ge S7 (Ln = La - Nd, Sm, Gd - Er and Y;  = 0.11 -
0.50) compounds
;
loop_
_citation_id
_citation_journal_full
_citation_year
_citation_journal_volume
_citation_page_first
_citation_page_last
_citation_journal_id_ASTM
primary 'Acta Crystallographica, Section B: Structural Science' 2009 65 126 133
ASBSDK
loop_
_citation_author_citation_id
_citation_author_name
primary 'Daszkiewicz, M.'
primary 'Gulay, L.D.'
primary 'Lychmanyuk, O.S.'
_cell_length_a 10.1930(14)
_cell_length_b 10.1930(14)
_cell_length_c 5.7693(12)
_cell_angle_alpha 90.
_cell_angle_beta 90.
_cell_angle_gamma 120.
_cell_volume 519.11
_cell_formula_units_Z 2
_space_group_name_H-M_alt 'P 63'
_space_group_IT_number 173
loop_
_space_group_symop_id
_space_group_symop_operation_xyz
1 'x-y, x, z+1/2'
2 'y, -x+y, z+1/2'
3 '-x, -y, z+1/2'
4 '-x+y, -x, z'
5 '-y, x-y, z'
6 'x, y, z'
loop_
_atom_type_symbol
_atom_type_oxidation_number
Nd3+ 3
Ag1+ 1
Ge4+ 4
S2- -2
loop_
_atom_site_label
_atom_site_type_symbol
_atom_site_symmetry_multiplicity
_atom_site_Wyckoff_symbol
_atom_site_fract_x
_atom_site_fract_y
_atom_site_fract_z
_atom_site_U_iso_or_equiv
_atom_site_occupancy
Nd1 Nd3+ 6 c 0.87317(3) 0.64140(3) 0.24353(16) 0.01001(11) 1
Ag1 Ag1+ 2 a 0. 0. 0.159(2) 0.053(4) 0.69(2)
Ag2 Ag1+ 2 a 0. 0. 0.971(7) 0.029(9) 0.15(2)
Ge1 Ge4+ 2 b 0.3333 0.6667 0.3272(2) 0.0087(2) 1
S1 S2- 2 b 0.3333 0.6667 0.9504(4) 0.0110(5) 1
S2 S2- 6 c 0.90545(14) 0.73476(15) 0.7252(3) 0.0140(3) 1
S3 S2- 6 c 0.58466(16) 0.47936(16) 0.9818(3) 0.0103(3) 1
loop_
_atom_site_aniso_label
_atom_site_aniso_type_symbol
_atom_site_aniso_U_11
_atom_site_aniso_U_22
_atom_site_aniso_U_33
_atom_site_aniso_U_12
_atom_site_aniso_U_13
_atom_site_aniso_U_23
Nd1 Nd3+ 0.00997(15) 0.00902(15) 0.01111(16) 0.00481(11) -0.00099(18)
-0.00074(16)
Ag1 Ag1+ 0.0114(6) 0.0114(6) 0.136(11) 0.0057(3) 0. 0.
Ag2 Ag1+ 0.013(2) 0.013(2) 0.06(3) 0.0063(12) 0. 0.
Ge1 Ge4+ 0.0094(3) 0.0094(3) 0.0072(5) 0.00472(16) 0. 0.
S1 S2- 0.0135(8) 0.0135(8) 0.0061(13) 0.0067(4) 0. 0.
S2 S2- 0.0111(6) 0.0188(6) 0.0125(7) 0.0078(5) -0.0005(7) -0.0023(8)
S3 S2- 0.0119(7) 0.0094(6) 0.0102(7) 0.0058(6) 0.0010(6) 0.0006(6)
#End of TTdata_260217-ICSD