
#(C) 2023 by FIZ Karlsruhe - Leibniz Institute for Information Infrastructure.  All rights reserved.
data_52281-ICSD
_database_code_ICSD 52281
_audit_creation_date 2003-04-01
_audit_update_record 2013-02-01
_chemical_name_common 'Dicobalt silicide . theta'
_chemical_formula_structural 'Co2 Si'
_chemical_formula_sum 'Co2 Si1'
_chemical_name_structure_type TiNiSi#MgSrSi
_exptl_crystal_density_diffrn 7.42
_citation_title
'Kristallstruktur und Zusammensetzung des rhombischen Kobaltsilicides'
loop_
_citation_id
_citation_journal_full
_citation_year
_citation_journal_volume
_citation_page_first
_citation_page_last
_citation_journal_id_ASTM
primary

;
Zeitschrift fuer Physikalische Chemie, Abteilung B: Chemie der
Elementarprozesse, Aufbau der Materie
; 1935 29 231 235 ZPCBAL
loop_
_citation_author_citation_id
_citation_author_name
primary 'Boren, B.'
primary 'Stahl, S.'
primary 'Westgren, A.'
_cell_length_a 7.109
_cell_length_b 4.918
_cell_length_c 3.738
_cell_angle_alpha 90.
_cell_angle_beta 90.
_cell_angle_gamma 90.
_cell_volume 130.69
_cell_formula_units_Z 4
_space_group_name_H-M_alt 'P b n m'
_space_group_IT_number 62
loop_
_space_group_symop_id
_space_group_symop_operation_xyz
1 '-x+1/2, y+1/2, z'
2 'x, y, -z+1/2'
3 'x+1/2, -y+1/2, z+1/2'
4 '-x, -y, -z'
5 'x+1/2, -y+1/2, -z'
6 '-x, -y, z+1/2'
7 '-x+1/2, y+1/2, -z+1/2'
8 'x, y, z'
loop_
_atom_type_symbol
_atom_type_oxidation_number
Co0+ 0
Si0+ 0
loop_
_atom_site_label
_atom_site_type_symbol
_atom_site_symmetry_multiplicity
_atom_site_Wyckoff_symbol
_atom_site_fract_x
_atom_site_fract_y
_atom_site_fract_z
_atom_site_B_iso_or_equiv
_atom_site_occupancy
Co1 Co0+ 4 c 0.103 0.09 0.25 . 1.
Co2 Co0+ 4 c 0.772 0.193 0.25 . 1.
Si1 Si0+ 4 c 0.44 0.07 0.25 . 1.
#End of TTdata_52281-ICSD