
#(C) 2024 by FIZ Karlsruhe - Leibniz Institute for Information Infrastructure.  All rights reserved.
data_260215-ICSD
_database_code_ICSD 260215
_audit_creation_date 2009-08-01
_chemical_name_common 'Silver germanium cerium sulfide (0.88/1/3/7)'
_chemical_formula_structural 'Ag0.88 Ge Ce3 S7'
_chemical_formula_sum 'Ag0.88 Ce3 Ge1 S7'
_chemical_name_structure_type CuLa3SiS7
_exptl_crystal_density_diffrn 4.94
_diffrn_ambient_temperature 295.
_citation_title

;
Ln3 M1 - T X7 - quasi - isostructural compounds: stereochemistry and silver -
ion motion in the Ln3 Ag1 - Ge S7 (Ln = La - Nd, Sm, Gd - Er and Y;  = 0.11 -
0.50) compounds
;
loop_
_citation_id
_citation_journal_full
_citation_year
_citation_journal_volume
_citation_page_first
_citation_page_last
_citation_journal_id_ASTM
primary 'Acta Crystallographica, Section B: Structural Science' 2009 65 126 133
ASBSDK
loop_
_citation_author_citation_id
_citation_author_name
primary 'Daszkiewicz, M.'
primary 'Gulay, L.D.'
primary 'Lychmanyuk, O.S.'
_cell_length_a 10.3902(15)
_cell_length_b 10.3902(15)
_cell_length_c 5.8425(12)
_cell_angle_alpha 90.
_cell_angle_beta 90.
_cell_angle_gamma 120.
_cell_volume 546.23
_cell_formula_units_Z 2
_space_group_name_H-M_alt 'P 63'
_space_group_IT_number 173
loop_
_space_group_symop_id
_space_group_symop_operation_xyz
1 'x-y, x, z+1/2'
2 'y, -x+y, z+1/2'
3 '-x, -y, z+1/2'
4 '-x+y, -x, z'
5 '-y, x-y, z'
6 'x, y, z'
loop_
_atom_type_symbol
_atom_type_oxidation_number
Ce3+ 3
Ag1+ 1
Ge4+ 4
S2- -2
loop_
_atom_site_label
_atom_site_type_symbol
_atom_site_symmetry_multiplicity
_atom_site_Wyckoff_symbol
_atom_site_fract_x
_atom_site_fract_y
_atom_site_fract_z
_atom_site_U_iso_or_equiv
_atom_site_occupancy
Ce1 Ce3+ 6 c 0.87483(3) 0.64142(3) 0.23920(14) 0.01007(13) 1
Ag1 Ag1+ 2 a 0. 0. 0.1694(6) 0.0391(16) 0.783(9)
Ag2 Ag1+ 2 a 0. 0. 0.965(4) 0.026(7) 0.098(9)
Ge1 Ge4+ 2 b 0.3333 0.6667 0.3228(2) 0.0100(3) 1
S1 S2- 2 b 0.3333 0.6667 0.9480(5) 0.0116(6) 1
S2 S2- 6 c 0.90743(17) 0.73512(17) 0.7237(4) 0.0135(3) 1
S3 S2- 6 c 0.5867(2) 0.47870(19) 0.9745(3) 0.0108(3) 1
loop_
_atom_site_aniso_label
_atom_site_aniso_type_symbol
_atom_site_aniso_U_11
_atom_site_aniso_U_22
_atom_site_aniso_U_33
_atom_site_aniso_U_12
_atom_site_aniso_U_13
_atom_site_aniso_U_23
Ce1 Ce3+ 0.00999(19) 0.00870(19) 0.0116(2) 0.00471(14) -0.0008(2) -0.0009(2)
Ag1 Ag1+ 0.0109(6) 0.0109(6) 0.096(5) 0.0054(3) 0. 0.
Ag2 Ag1+ 0.020(4) 0.020(4) 0.04(2) 0.010(2) 0. 0.
Ge1 Ge4+ 0.0102(4) 0.0102(4) 0.0096(6) 0.00509(19) 0. 0.
S1 S2- 0.0127(9) 0.0127(9) 0.0094(16) 0.0063(5) 0. 0.
S2 S2- 0.0112(7) 0.0171(7) 0.0126(8) 0.0074(6) 0.0003(8) -0.0016(9)
S3 S2- 0.0113(8) 0.0099(8) 0.0115(8) 0.0055(7) 0.0014(7) 0.0004(6)
#End of TTdata_260215-ICSD