
#(C) 2024 by FIZ Karlsruhe - Leibniz Institute for Information Infrastructure.  All rights reserved.
data_260221-ICSD
_database_code_ICSD 260221
_audit_creation_date 2009-08-01
_chemical_name_common 'Silver germanium dysprosium sulfide (0.51/1/3/7)'
_chemical_formula_structural 'Ag0.51 Ge Dy3 S7'
_chemical_formula_sum 'Ag0.51 Dy3 Ge1 S7'
_chemical_name_structure_type La3Mn0.5SiS7
_exptl_crystal_density_diffrn 5.79
_diffrn_ambient_temperature 295.
_citation_title

;
Ln3 M1 - T X7 - quasi - isostructural compounds: stereochemistry and silver -
ion motion in the Ln3 Ag1 - Ge S7 (Ln = La - Nd, Sm, Gd - Er and Y;  = 0.11 -
0.50) compounds
;
loop_
_citation_id
_citation_journal_full
_citation_year
_citation_journal_volume
_citation_page_first
_citation_page_last
_citation_journal_id_ASTM
primary 'Acta Crystallographica, Section B: Structural Science' 2009 65 126 133
ASBSDK
loop_
_citation_author_citation_id
_citation_author_name
primary 'Daszkiewicz, M.'
primary 'Gulay, L.D.'
primary 'Lychmanyuk, O.S.'
_cell_length_a 9.8003(14)
_cell_length_b 9.8003(14)
_cell_length_c 5.7879(12)
_cell_angle_alpha 90.
_cell_angle_beta 90.
_cell_angle_gamma 120.
_cell_volume 481.43
_cell_formula_units_Z 2
_space_group_name_H-M_alt 'P 63'
_space_group_IT_number 173
loop_
_space_group_symop_id
_space_group_symop_operation_xyz
1 'x-y, x, z+1/2'
2 'y, -x+y, z+1/2'
3 '-x, -y, z+1/2'
4 '-x+y, -x, z'
5 '-y, x-y, z'
6 'x, y, z'
loop_
_atom_type_symbol
_atom_type_oxidation_number
Dy3+ 3
Ag1+ 1
Ge4+ 4
S2- -2
loop_
_atom_site_label
_atom_site_type_symbol
_atom_site_symmetry_multiplicity
_atom_site_Wyckoff_symbol
_atom_site_fract_x
_atom_site_fract_y
_atom_site_fract_z
_atom_site_U_iso_or_equiv
_atom_site_occupancy
Dy1 Dy3+ 6 c 0.86393(3) 0.64111(3) 0.24397(11) 0.01554(10) 1
Ag1 Ag1+ 2 a 0. 0. 0.0017(9) 0.0735(13) 0.517(5)
Ge1 Ge4+ 2 b 0.3333 0.6667 0.32315(16) 0.0100(2) 1
S1 S2- 2 b 0.3333 0.6667 0.9457(4) 0.0110(5) 1
S2 S2- 6 c 0.89852(18) 0.7401(2) 0.7034(2) 0.0197(4) 1
S3 S2- 6 c 0.57703(18) 0.47943(18) 0.9824(2) 0.0123(3) 1
loop_
_atom_site_aniso_label
_atom_site_aniso_type_symbol
_atom_site_aniso_U_11
_atom_site_aniso_U_22
_atom_site_aniso_U_33
_atom_site_aniso_U_12
_atom_site_aniso_U_13
_atom_site_aniso_U_23
Dy1 Dy3+ 0.01188(14) 0.01160(14) 0.02330(15) 0.00598(10) -0.00218(19)
-0.00039(17)
Ag1 Ag1+ 0.0108(7) 0.0108(7) 0.199(3) 0.0054(4) 0. 0.
Ge1 Ge4+ 0.0113(3) 0.0113(3) 0.0076(4) 0.00564(17) 0. 0.
S1 S2- 0.0137(8) 0.0137(8) 0.0057(11) 0.0069(4) 0. 0.
S2 S2- 0.0119(7) 0.0251(8) 0.0232(10) 0.0100(6) -0.0014(6) -0.0127(7)
S3 S2- 0.0165(8) 0.0122(7) 0.0114(6) 0.0096(7) -0.0002(7) -0.0008(6)
#End of TTdata_260221-ICSD