
#(C) 2024 by FIZ Karlsruhe - Leibniz Institute for Information Infrastructure.  All rights reserved.
data_182861-ICSD
_database_code_ICSD 182861
_audit_creation_date 2012-08-01
_audit_update_record 2015-02-01
_chemical_name_common 'Iron tin sulfide (0.43/0.57/2)'
_chemical_formula_structural '((Fe0.431 Sn0.569) S2) (Pb1.352 Sn1.345 S2.697)'
_chemical_formula_sum 'Fe0.431 Pb1.352 S4.697 Sn1.914'
_chemical_name_mineral Franckeite
_exptl_crystal_density_diffrn 5.72
_citation_title
'The crystal structure of franckeite, Pb21.7 Sn9.3 Fe4.0 Sb8.1 S56.9'
loop_
_citation_id
_citation_journal_full
_citation_year
_citation_journal_volume
_citation_page_first
_citation_page_last
_citation_journal_id_ASTM
primary 'American Mineralogist' 2011 96 1686 1702 AMMIAY
loop_
_citation_author_citation_id
_citation_author_name
primary 'Makovicky, E.'
primary 'Petricek, V.'
primary 'Dusek, M.'
primary 'Topa, D.'
_cell_length_a 3.665(8)
_cell_length_b 6.2575(16)
_cell_length_c 17.419(5)
_cell_angle_alpha 95.25(2)
_cell_angle_beta 95.45(2)
_cell_angle_gamma 89.97(2)
_cell_volume 396.
_cell_formula_units_Z 2
_space_group_name_H-M_alt 'C -1'
_space_group_IT_number 2
loop_
_space_group_symop_id
_space_group_symop_operation_xyz
1 '-x, -y, -z'
2 'x, y, z'
3 '-x+1/2, -y+1/2, -z'
4 'x+1/2, y+1/2, z'
loop_
_atom_type_symbol
_atom_type_oxidation_number
Sn4+ 4
Fe4+ 4
S2- -2
Pb2+ 2
Sn2+ 2
S2- -2
loop_
_atom_site_label
_atom_site_type_symbol
_atom_site_symmetry_multiplicity
_atom_site_Wyckoff_symbol
_atom_site_fract_x
_atom_site_fract_y
_atom_site_fract_z
_atom_site_U_iso_or_equiv
_atom_site_occupancy
Sn1 Sn4+ 2 c 0.25 0.25 0 0.0259(5) 0.57(2)
Fe1 Fe4+ 2 c 0.25 0.25 0 0.0259(5) 0.43(2)
S1 S2- 4 i 0.2882(11) 0.6070(4) 0.08270(18) 0.0468(15) 1.
loop_
_atom_site_aniso_label
_atom_site_aniso_type_symbol
_atom_site_aniso_U_11
_atom_site_aniso_U_22
_atom_site_aniso_U_33
_atom_site_aniso_U_12
_atom_site_aniso_U_13
_atom_site_aniso_U_23
Sn1 Sn4+ 0.0357(10) 0.0082(5) 0.0344(11) 0.0004(6) 0.0082(7) 0.0005(6)
Fe1 Fe4+ 0.0357(10) 0.0082(5) 0.0344(11) 0.0004(6) 0.0082(7) 0.0005(6)
S1 S2- 0.090(4) 0.0156(11) 0.035(2) 0.0010(13) 0.006(2) 0.0007(12)
#End of TTdata_182861-ICSD