
#(C) 2024 by FIZ Karlsruhe - Leibniz Institute for Information Infrastructure.  All rights reserved.
data_117161-ICSD
_database_code_ICSD 117161
_audit_creation_date 2023-02-01
_chemical_name_common 'Dilithium bis(hexaoxoaluminodisilicate) dihydrate'
_chemical_formula_structural 'Li2 (Al2 Si4 O12) (H2 O)2'
_chemical_formula_sum 'H4 Al2 Li2 O14 Si4'
_chemical_name_structure_type Bikitaite-1A-frame#Li2Al2Si4O12(H2O)2
_chemical_name_mineral Bikitaite
_exptl_crystal_density_diffrn 2.7
_diffrn_ambient_pressure 9000000.
_citation_title

;
High-pressure behavior of bikitaite: An integrated theoretical and
experimental approach
;
loop_
_citation_id
_citation_journal_full
_citation_year
_citation_journal_volume
_citation_page_first
_citation_page_last
_citation_journal_id_ASTM
primary 'American Mineralogist' 2002 87 1415 1425 AMMIAY
loop_
_citation_author_citation_id
_citation_author_name
primary 'Ferro, Orazio'
primary 'Quartieri, Simona'
primary 'Vezzalini,  Giovanna'
primary 'Fois, Ettore'
primary 'Gamba, Aldo'
primary 'Tabacchi, Gloria'
_cell_length_a 8.231(5)
_cell_length_b 4.7320(19)
_cell_length_c 7.1187(30)
_cell_angle_alpha 92.80(15)
_cell_angle_beta 114.99(4)
_cell_angle_gamma 88.37(8)
_cell_volume 251.
_cell_formula_units_Z 1
_space_group_name_H-M_alt 'P 1'
_space_group_IT_number 1
loop_
_space_group_symop_id
_space_group_symop_operation_xyz
1 'x, y, z'
loop_
_atom_type_symbol
_atom_type_oxidation_number
Li1+ 1
Si4+ 4
Al3+ 3
O2- -2
H1+ 1
loop_
_atom_site_label
_atom_site_type_symbol
_atom_site_symmetry_multiplicity
_atom_site_Wyckoff_symbol
_atom_site_fract_x
_atom_site_fract_y
_atom_site_fract_z
_atom_site_B_iso_or_equiv
_atom_site_occupancy
Li1 Li1+ 1 a 0.3002 0.2841 0.1852 . 1.
Li2 Li1+ 1 a 0.6485 0.7621 0.7962 . 1.
Si1 Si4+ 1 a 0.0922 0.7631 0.0853 . 1.
Si2 Si4+ 1 a 0.0941 0.8915 0.4982 . 1.
Si3 Si4+ 1 a 0.8544 0.3888 0.4499 . 1.
Si4 Si4+ 1 a 0.5971 0.3143 0.0367 . 1.
Al1 Al3+ 1 a 0.3505 0.8238 0.9189 . 1.
Al2 Al3+ 1 a 0.8657 0.2567 0.8645 . 1.
O1 O2- 1 a 0.2467 0.6216 0.0366 . 1.
O2 O2- 1 a 0.0772 0.0977 0.0223 . 1.
O3 O2- 1 a 0.1479 0.7189 0.3288 . 1.
O4 O2- 1 a -0.0124 0.6605 0.5707 . 1.
O5 O2- 1 a 0.2489 0.013 0.6971 . 1.
O6 O2- 1 a 0.4782 0.0977 0.101 . 1.
O7 O2- 1 a 0.6994 0.1341 0.9276 . 1.
O8 O2- 1 a 0.8981 0.6234 0.9468 . 1.
O9 O2- 1 a 0.7991 0.2295 0.6001 . 1.
O10 O2- 1 a 0.9605 0.1499 0.358 . 1.
O11 O2- 1 a 0.7013 0.5081 0.248 . 1.
O12 O2- 1 a 0.4819 0.5529 0.8559 . 1.
O13 O2- 1 a 0.4054 0.2867 0.4742 . 1.
O14 O2- 1 a 0.5563 0.782 0.4981 . 1.
H1 H1+ 1 a 0.3607 0.3042 0.5785 . 1.
H2 H1+ 1 a 0.4742 0.1096 0.503 . 1.
H3 H1+ 1 a 0.6182 0.8049 0.4166 . 1.
H4 H1+ 1 a 0.4951 0.6033 0.4604 . 1.
#End of TTdata_117161-ICSD