
#(C) 2024 by FIZ Karlsruhe - Leibniz Institute for Information Infrastructure.  All rights reserved.
data_257209-ICSD
_database_code_ICSD 257209
_audit_creation_date 2017-08-01
_chemical_name_common 'Manganese boron'
_chemical_formula_structural 'Mn B2'
_chemical_formula_sum 'B2 Mn1'
_chemical_name_structure_type AlB2
_exptl_crystal_density_diffrn 5.3
_citation_title

;
Investigating robust honeycomb borophenes sandwiching manganese layers in
manganese diboride
;
loop_
_citation_id
_citation_journal_full
_citation_year
_citation_journal_volume
_citation_page_first
_citation_page_last
_citation_journal_id_ASTM
primary 'Inorganic Chemistry' 2016 55 11140 11146 INOCAJ
loop_
_citation_author_citation_id
_citation_author_name
primary 'Ma, Shuailing'
primary 'Bao, Kuo'
primary 'Tao, Qiang'
primary 'Xu, Chunhong'
primary 'Feng, Xiaokang'
primary 'Zhu, Pinwen'
primary 'Cui, Tian'
_cell_length_a 3.0174(3)
_cell_length_b 3.0174(3)
_cell_length_c 3.0397(5)
_cell_angle_alpha 90.
_cell_angle_beta 90.
_cell_angle_gamma 120.
_cell_volume 23.97
_cell_formula_units_Z 1
_space_group_name_H-M_alt 'P 6/m m m'
_space_group_IT_number 191
loop_
_space_group_symop_id
_space_group_symop_operation_xyz
1 '-x, -x+y, -z'
2 'x-y, -y, -z'
3 'y, x, -z'
4 '-x+y, -x, -z'
5 '-y, x-y, -z'
6 'x, y, -z'
7 'x, x-y, -z'
8 '-x+y, y, -z'
9 '-y, -x, -z'
10 'x-y, x, -z'
11 'y, -x+y, -z'
12 '-x, -y, -z'
13 'x, x-y, z'
14 '-x+y, y, z'
15 '-y, -x, z'
16 'x-y, x, z'
17 'y, -x+y, z'
18 '-x, -y, z'
19 '-x, -x+y, z'
20 'x-y, -y, z'
21 'y, x, z'
22 '-x+y, -x, z'
23 '-y, x-y, z'
24 'x, y, z'
loop_
_atom_type_symbol
_atom_type_oxidation_number
Mn0+ 0
B0+ 0
loop_
_atom_site_label
_atom_site_type_symbol
_atom_site_symmetry_multiplicity
_atom_site_Wyckoff_symbol
_atom_site_fract_x
_atom_site_fract_y
_atom_site_fract_z
_atom_site_B_iso_or_equiv
_atom_site_occupancy
Mn1 Mn0+ 1 a 0 0 0 . 0.9221
B1 B0+ 2 d 0.3333 0.6667 0.5 . 1.
#End of TTdata_257209-ICSD