
#(C) 2024 by FIZ Karlsruhe - Leibniz Institute for Information Infrastructure.  All rights reserved.
data_416469-ICSD
_database_code_ICSD 416469
_audit_creation_date 2007-08-01
_chemical_name_common
'Dicesium dipotassium dodecaplatinum octaoxide dodecasulfate'
_chemical_formula_structural 'Cs2 K2 (Pt12 O8 (S O4)12)'
_chemical_formula_sum 'Cs2 K2 O56 Pt12 S12'
_exptl_crystal_density_diffrn 5.73
_citation_title

;
Cs2 K2 [Pt12 O8 (S O4)12]: A new oxide-sulfate with the cluster anion [Pt12 O8
(S O4)12]4-
;
loop_
_citation_id
_citation_journal_full
_citation_year
_citation_journal_volume
_citation_page_first
_citation_page_last
_citation_journal_id_ASTM
primary 'Zeitschrift fuer Naturforschung, B: A Journal of Chemical Sciences'
2006 61 912 915 ZNBSEN
loop_
_citation_author_citation_id
_citation_author_name
primary 'Pley, M.'
primary 'Wickleder, M.S.'
_cell_length_a 11.989(3)
_cell_length_b 11.989(3)
_cell_length_c 27.680(10)
_cell_angle_alpha 90.
_cell_angle_beta 90.
_cell_angle_gamma 120.
_cell_volume 3445.58
_cell_formula_units_Z 3
_space_group_name_H-M_alt 'R -3 H'
_space_group_IT_number 148
loop_
_space_group_symop_id
_space_group_symop_operation_xyz
1 'x-y, x, -z'
2 'y, -x+y, -z'
3 '-x, -y, -z'
4 '-x+y, -x, z'
5 '-y, x-y, z'
6 'x, y, z'
7 'x-y+2/3, x+1/3, -z+1/3'
8 'y+2/3, -x+y+1/3, -z+1/3'
9 '-x+2/3, -y+1/3, -z+1/3'
10 '-x+y+2/3, -x+1/3, z+1/3'
11 '-y+2/3, x-y+1/3, z+1/3'
12 'x+2/3, y+1/3, z+1/3'
13 'x-y+1/3, x+2/3, -z+2/3'
14 'y+1/3, -x+y+2/3, -z+2/3'
15 '-x+1/3, -y+2/3, -z+2/3'
16 '-x+y+1/3, -x+2/3, z+2/3'
17 '-y+1/3, x-y+2/3, z+2/3'
18 'x+1/3, y+2/3, z+2/3'
loop_
_atom_type_symbol
_atom_type_oxidation_number
Pt3+ 3
S6+ 6
Cs1+ 1
K1+ 1
O2- -2
loop_
_atom_site_label
_atom_site_type_symbol
_atom_site_symmetry_multiplicity
_atom_site_Wyckoff_symbol
_atom_site_fract_x
_atom_site_fract_y
_atom_site_fract_z
_atom_site_U_iso_or_equiv
_atom_site_occupancy
Pt1 Pt3+ 18 f 0.11802(8) 0.28279(8) 0.03271(3) 0.0188(2) 1
Pt2 Pt3+ 18 f 0.93414(8) 0.12378(8) 0.08501(3) 0.0190(3) 1
S1 S6+ 18 f 0.1827(5) 0.3008(5) 0.1403(2) 0.0208(10) 1
S2 S6+ 18 f 0.9014(5) 0.3440(5) 0.0453(2) 0.0216(10) 1
Cs1 Cs1+ 6 c 0.6667 0.3333 0.91873(12) 0.0348(6) 1
K1 K1+ 6 c 0.6667 0.3333 0.1267(4) 0.042(2) 1
O1 O2- 6 c 0. 0. 0.0915(10) 0.018(5) 1
O2 O2- 18 f 0.2036(15) 0.1778(15) 0.0304(5) 0.019(3) 1
O3 O2- 18 f 0.2340(16) 0.2122(15) 0.1392(6) 0.023(3) 1
O4 O2- 18 f 0.0363(17) 0.2216(16) 0.1430(6) 0.027(3) 1
O5 O2- 18 f 0.5099(15) 0.5685(15) 0.1538(6) 0.022(3) 1
O6 O2- 18 f 0.2144(14) 0.3732(15) 0.0929(6) 0.020(3) 1
O7 O2- 18 f 0.8626(15) 0.2433(15) 0.0857(6) 0.022(3) 1
O8 O2- 18 f 0.8697(17) 0.4397(16) 0.0605(7) 0.027(4) 1
O9 O2- 18 f 0.0451(15) 0.4041(14) 0.0380(6) 0.019(3) 1
O10 O2- 18 f 0.2810(16) 0.4473(16) 0.9999(7) 0.027(4) 1
loop_
_atom_site_aniso_label
_atom_site_aniso_type_symbol
_atom_site_aniso_U_11
_atom_site_aniso_U_22
_atom_site_aniso_U_33
_atom_site_aniso_U_12
_atom_site_aniso_U_13
_atom_site_aniso_U_23
Pt1 Pt3+ 0.0185(4) 0.0175(4) 0.0199(4) 0.0087(3) -0.0002(3) -0.0011(3)
Pt2 Pt3+ 0.0184(4) 0.0175(4) 0.0211(4) 0.0089(3) 0.0006(3) -0.0001(3)
S1 S6+ 0.022(2) 0.018(2) 0.020(3) 0.009(2) 0.001(2) -0.0009(19)
S2 S6+ 0.023(2) 0.021(2) 0.021(3) 0.011(2) -0.001(2) 0.000(2)
Cs1 Cs1+ 0.0302(8) 0.0302(8) 0.0438(17) 0.0151(4) 0. 0.
K1 K1+ 0.044(4) 0.044(4) 0.037(6) 0.0222(18) 0. 0.
O1 O2- 0.017(7) 0.017(7) 0.021(13) 0.008(4) 0. 0.
O2 O2- 0.028(8) 0.025(7) 0.011(7) 0.019(6) 0.001(6) -0.003(6)
O3 O2- 0.031(8) 0.022(7) 0.020(8) 0.017(7) -0.008(6) -0.006(6)
O4 O2- 0.031(9) 0.023(8) 0.028(9) 0.014(7) 0.000(7) -0.001(7)
O5 O2- 0.018(7) 0.022(7) 0.021(8) 0.007(6) 0.001(6) 0.004(6)
O6 O2- 0.016(7) 0.025(7) 0.018(8) 0.009(6) -0.006(6) -0.007(6)
O7 O2- 0.021(7) 0.020(7) 0.025(8) 0.012(6) -0.005(6) 0.002(6)
O8 O2- 0.032(9) 0.025(8) 0.032(10) 0.019(7) 0.003(7) 0.000(7)
O9 O2- 0.019(7) 0.019(7) 0.022(8) 0.013(6) 0.002(6) 0.002(6)
O10 O2- 0.025(8) 0.022(7) 0.028(9) 0.007(6) 0.013(7) -0.001(7)
#End of TTdata_416469-ICSD