
#(C) 2024 by FIZ Karlsruhe - Leibniz Institute for Information Infrastructure.  All rights reserved.
data_260222-ICSD
_database_code_ICSD 260222
_audit_creation_date 2009-08-01
_chemical_name_common 'Silver germanium holmium sulfide (0.50/1/3/7)'
_chemical_formula_structural 'Ag0.50 Ge Ho3 S7'
_chemical_formula_sum 'Ag0.5 Ge1 Ho3 S7'
_chemical_name_structure_type La3Mn0.5SiS7
_exptl_crystal_density_diffrn 5.9
_diffrn_ambient_temperature 295.
_citation_title

;
Ln3 M1 - T X7 - quasi - isostructural compounds: stereochemistry and silver -
ion motion in the Ln3 Ag1 - Ge S7 (Ln = La - Nd, Sm, Gd - Er and Y;  = 0.11 -
0.50) compounds
;
loop_
_citation_id
_citation_journal_full
_citation_year
_citation_journal_volume
_citation_page_first
_citation_page_last
_citation_journal_id_ASTM
primary 'Acta Crystallographica, Section B: Structural Science' 2009 65 126 133
ASBSDK
loop_
_citation_author_citation_id
_citation_author_name
primary 'Daszkiewicz, M.'
primary 'Gulay, L.D.'
primary 'Lychmanyuk, O.S.'
_cell_length_a 9.7401(14)
_cell_length_b 9.7401(14)
_cell_length_c 5.7994(12)
_cell_angle_alpha 90.
_cell_angle_beta 90.
_cell_angle_gamma 120.
_cell_volume 476.48
_cell_formula_units_Z 2
_space_group_name_H-M_alt 'P 63'
_space_group_IT_number 173
loop_
_space_group_symop_id
_space_group_symop_operation_xyz
1 'x-y, x, z+1/2'
2 'y, -x+y, z+1/2'
3 '-x, -y, z+1/2'
4 '-x+y, -x, z'
5 '-y, x-y, z'
6 'x, y, z'
loop_
_atom_type_symbol
_atom_type_oxidation_number
Ho3+ 3
Ag1+ 1
Ge4+ 4
S2- -2
loop_
_atom_site_label
_atom_site_type_symbol
_atom_site_symmetry_multiplicity
_atom_site_Wyckoff_symbol
_atom_site_fract_x
_atom_site_fract_y
_atom_site_fract_z
_atom_site_U_iso_or_equiv
_atom_site_occupancy
Ho1 Ho3+ 6 c 0.86127(3) 0.64077(3) 0.24376(13) 0.01686(11) 1
Ag1 Ag1+ 2 a 0. 0. 0.9801(12) 0.0699(11) 0.5
Ge1 Ge4+ 2 b 0.3333 0.6667 0.32172(19) 0.0101(3) 1
S1 S2- 2 b 0.3333 0.6667 0.9456(5) 0.0104(6) 1
S2 S2- 6 c 0.8968(2) 0.7410(2) 0.6976(3) 0.0204(5) 1
S3 S2- 6 c 0.5748(2) 0.4782(2) 0.9815(3) 0.0130(4) 1
loop_
_atom_site_aniso_label
_atom_site_aniso_type_symbol
_atom_site_aniso_U_11
_atom_site_aniso_U_22
_atom_site_aniso_U_33
_atom_site_aniso_U_12
_atom_site_aniso_U_13
_atom_site_aniso_U_23
Ho1 Ho3+ 0.01145(15) 0.01179(15) 0.02747(19) 0.00591(12) -0.0023(2) 0.0000(2)
Ag1 Ag1+ 0.0155(6) 0.0155(6) 0.179(3) 0.0078(3) 0. 0.
Ge1 Ge4+ 0.0112(4) 0.0112(4) 0.0079(6) 0.00562(19) 0. 0.
S1 S2- 0.0127(9) 0.0127(9) 0.0058(15) 0.0064(5) 0. 0.
S2 S2- 0.0112(8) 0.0234(9) 0.0278(15) 0.0095(7) -0.0009(7) -0.0124(8)
S3 S2- 0.0169(9) 0.0133(8) 0.0126(8) 0.0104(7) -0.0006(8) -0.0005(8)
#End of TTdata_260222-ICSD