
#(C) 2024 by FIZ Karlsruhe - Leibniz Institute for Information Infrastructure.  All rights reserved.
data_161429-ICSD
_database_code_ICSD 161429
_audit_creation_date 2009-02-01
_chemical_name_common 'Calcium sodium stannate niobate (0.08/0.93/0.08/0.93)'
_chemical_formula_structural '(Ca0.075 Na0.925) ((Sn O3)0.075 (Nb O3)0.925)'
_chemical_formula_sum 'Ca0.075 Na0.925 Nb0.925 O3 Sn0.075'
_chemical_name_structure_type Perovskite#PbTiO3(P4mm)
_exptl_crystal_density_diffrn 4.62
_diffrn_ambient_temperature 293.
_citation_title

;
X-ray diffraction, dielectric measurements and Raman sppectroscopy. Studies of
the (1-x)(Ca Sn O3) - x(Na Nb O3) solid solution
;
loop_
_citation_id
_citation_journal_full
_citation_year
_citation_journal_volume
_citation_page_first
_citation_page_last
_citation_journal_id_ASTM
primary 'Journal of Alloys and Compounds' 2008 465 222 226 JALCEU
loop_
_citation_author_citation_id
_citation_author_name
primary 'Aydi, A.'
primary 'Chkoundali, S.'
primary 'Khemakhem, H.'
primary 'Simon, A.'
primary 'von der Muehll, R.'
_cell_length_a 3.9164
_cell_length_b 3.9164
_cell_length_c 3.9129
_cell_angle_alpha 90.
_cell_angle_beta 90.
_cell_angle_gamma 90.
_cell_volume 60.02
_cell_formula_units_Z 1
_space_group_name_H-M_alt 'P 4 m m'
_space_group_IT_number 99
loop_
_space_group_symop_id
_space_group_symop_operation_xyz
1 'y, -x, z'
2 '-y, x, z'
3 '-y, -x, z'
4 'y, x, z'
5 'x, -y, z'
6 '-x, y, z'
7 '-x, -y, z'
8 'x, y, z'
loop_
_atom_type_symbol
_atom_type_oxidation_number
Ca2+ 2
Na1+ 1
Sn4+ 4
Nb5+ 5
O2- -2
loop_
_atom_site_label
_atom_site_type_symbol
_atom_site_symmetry_multiplicity
_atom_site_Wyckoff_symbol
_atom_site_fract_x
_atom_site_fract_y
_atom_site_fract_z
_atom_site_B_iso_or_equiv
_atom_site_occupancy
Ca1 Ca2+ 1 b 0.5 0.5 0.5256 0.616 0.075
Na1 Na1+ 1 b 0.5 0.5 0.5256 0.2369 0.925
Sn1 Sn4+ 1 a 0 0 0.1149 0.1493 0.075
Nb1 Nb5+ 1 a 0 0 0.1149 0.1493 0.925
O1 O2- 2 c 0.5 0 0 1. 1.
O2 O2- 1 a 0 0 0.5358 1. 1.
#End of TTdata_161429-ICSD