
#(C) 2024 by FIZ Karlsruhe - Leibniz Institute for Information Infrastructure.  All rights reserved.
data_57116-ICSD
_database_code_ICSD 57116
_audit_creation_date 2023-02-01
_chemical_name_common 'Cobalt manganese germanide (3.24/2/0.76)'
_chemical_formula_structural 'Co3.24 Mn2 Ge0.76'
_chemical_formula_sum 'Co3.24 Ge0.76 Mn2'
_chemical_name_structure_type Laves(2H)#MgZn2
_exptl_crystal_density_diffrn 7.65
_diffrn_ambient_temperature 296.
_citation_title
'Data-driven design of a new class of rare-earth free permanent magnets'
loop_
_citation_id
_citation_journal_full
_citation_year
_citation_journal_volume
_citation_page_first
_citation_page_last
_citation_journal_id_ASTM
primary 'Acta Materialia' 2021 212 '' '' ACMAFD
loop_
_citation_author_citation_id
_citation_author_name
primary 'Vishina, Alena'
primary 'Hedlund, Daniel'
primary 'Shtender, Vitalii'
primary 'Delczeg-Czirjak, Erna K.'
primary 'Larsen, Simon R.'
primary 'Vekilova, Olga Yu.'
primary 'Huang, Shuo'
primary 'Vitos, Levente'
primary 'Svedlindh, Peter'
primary 'Sahlberg, Martin'
primary 'Eriksson, Olle'
primary 'Herper, Heike C.'
_cell_length_a 4.8032(2)
_cell_length_b 4.8032(2)
_cell_length_c 7.7378(4)
_cell_angle_alpha 90.
_cell_angle_beta 90.
_cell_angle_gamma 120.
_cell_volume 154.6
_cell_formula_units_Z 2
_space_group_name_H-M_alt 'P 63/m m c'
_space_group_IT_number 194
loop_
_space_group_symop_id
_space_group_symop_operation_xyz
1 'x, x-y, -z+1/2'
2 '-x+y, y, -z+1/2'
3 '-y, -x, -z+1/2'
4 '-x+y, -x, -z+1/2'
5 '-y, x-y, -z+1/2'
6 'x, y, -z+1/2'
7 '-x, -x+y, z+1/2'
8 'x-y, -y, z+1/2'
9 'y, x, z+1/2'
10 'x-y, x, z+1/2'
11 'y, -x+y, z+1/2'
12 '-x, -y, z+1/2'
13 '-x, -x+y, -z'
14 'x-y, -y, -z'
15 'y, x, -z'
16 'x-y, x, -z'
17 'y, -x+y, -z'
18 '-x, -y, -z'
19 'x, x-y, z'
20 '-x+y, y, z'
21 '-y, -x, z'
22 '-x+y, -x, z'
23 '-y, x-y, z'
24 'x, y, z'
loop_
_atom_type_symbol
_atom_type_oxidation_number
Co0+ 0
Ge0+ 0
Mn0+ 0
Co0+ 0
Ge0+ 0
loop_
_atom_site_label
_atom_site_type_symbol
_atom_site_symmetry_multiplicity
_atom_site_Wyckoff_symbol
_atom_site_fract_x
_atom_site_fract_y
_atom_site_fract_z
_atom_site_U_iso_or_equiv
_atom_site_occupancy
Co1 Co0+ 6 h 0.17153(4) 0.34306(8) 0.25 0.00594(11) 0.837
Ge1 Ge0+ 6 h 0.17153(4) 0.34306(8) 0.25 0.00594(11) 0.163
Mn1 Mn0+ 4 f 0.3333 0.6667 0.56358(7) 0.00817(16) 1
Co2 Co0+ 2 a 0 0 0 0.0066667(17) 0.74
Ge2 Ge0+ 2 a 0 0 0 0.0066667(17) 0.26
#End of TTdata_57116-ICSD