
#(C) 2024 by FIZ Karlsruhe - Leibniz Institute for Information Infrastructure.  All rights reserved.
data_422037-ICSD
_database_code_ICSD 422037
_audit_creation_date 2011-02-01
_chemical_name_common 'Cobalt titanium oxide borate (4.74/1.26/4/2)'
_chemical_formula_structural '(Co4.74 Ti1.26) (O2 B O3)2'
_chemical_formula_sum 'B2 Co4.74 O10 Ti1.26'
_chemical_name_structure_type Ludwigite#Mg2FeBO5
_exptl_crystal_density_diffrn 4.98
_diffrn_ambient_temperature 294.
_citation_title
'Structural and magnetic properties of the oxyborate Co5 Ti (O2 B O3)2'
loop_
_citation_id
_citation_journal_full
_citation_year
_citation_journal_volume
_citation_page_first
_citation_page_last
_citation_journal_id_ASTM
primary 'Physical Review B: Condensed Matter and Materials Physics' 2010 81 1 7
PRBMDO
loop_
_citation_author_citation_id
_citation_author_name
primary 'Freitas, D.C.'
primary 'Guimaraes, R.B.'
primary 'Sanchez, D.R.'
primary 'Fernandes, J.C.'
primary 'Continentino, M.A.'
primary 'Ellena, J.'
primary 'Kitada, A.'
primary 'Kageyama, H.'
primary 'Matsuo, A.'
primary 'Kindo, K.'
primary 'Eslava, G.G.'
primary 'Ghivelder, L.'
_cell_length_a 9.3300(14)
_cell_length_b 12.2541(11)
_cell_length_c 3.0424(3)
_cell_angle_alpha 90
_cell_angle_beta 90
_cell_angle_gamma 90
_cell_volume 347.84
_cell_formula_units_Z 2
_space_group_name_H-M_alt 'P b a m'
_space_group_IT_number 55
loop_
_space_group_symop_id
_space_group_symop_operation_xyz
1 'x+1/2, -y+1/2, z'
2 '-x+1/2, y+1/2, z'
3 'x, y, -z'
4 '-x, -y, -z'
5 '-x+1/2, y+1/2, -z'
6 'x+1/2, -y+1/2, -z'
7 '-x, -y, z'
8 'x, y, z'
loop_
_atom_type_symbol
_atom_type_oxidation_number
Co2+ 2
Ti4+ 3.59
Co2+ 2
Ti4+ 3.59
Co2+ 2
O2- -2
B3+ 3
loop_
_atom_site_label
_atom_site_type_symbol
_atom_site_symmetry_multiplicity
_atom_site_Wyckoff_symbol
_atom_site_fract_x
_atom_site_fract_y
_atom_site_fract_z
_atom_site_U_iso_or_equiv
_atom_site_occupancy
Co1 Co2+ 2 a 1 1 0 0.0074(13) 0.7
Ti1 Ti4+ 2 a 1 1 0 0.013(4) 0.3
Co2 Co2+ 4 h 0.7619(11) 1.1129(9) 0.5 0.0074(13) 0.52
Ti2 Ti4+ 4 h 0.7614(16) 1.1170(14) 0.5 0.009(2) 0.48
Co3 Co2+ 2 d 0.5 1 0.5 0.0092(2) 1
Co4 Co2+ 4 g 0.99817(4) 0.71967(4) 0 0.00802(17) 1
O1 O2- 4 g 0.8907(3) 1.14373(17) 1 0.0125(5) 1
O2 O2- 4 h 0.8463(2) 0.95746(18) 0.5 0.0102(5) 1
O3 O2- 4 h 0.8432(2) 0.76365(19) 0.5 0.0099(5) 1
O4 O2- 4 g 0.8809(2) 0.5771(2) 1 0.0130(5) 1
O5 O2- 4 h 0.6227(2) 0.86022(17) 0.5 0.0094(5) 1
B1 B3+ 4 h 0.7703(4) 0.8623(3) 0.5 0.0078(7) 1
loop_
_atom_site_aniso_label
_atom_site_aniso_type_symbol
_atom_site_aniso_U_11
_atom_site_aniso_U_22
_atom_site_aniso_U_33
_atom_site_aniso_U_12
_atom_site_aniso_U_13
_atom_site_aniso_U_23
Co1 Co2+ 0.010(2) 0.0030(15) 0.010(2) -0.0001(12) 0 0
Ti1 Ti4+ 0.005(7) 0.025(7) 0.009(7) 0.004(4) 0 0
Co2 Co2+ 0.010(2) 0.0030(15) 0.010(2) -0.0001(12) 0 0
Ti2 Ti4+ 0.006(3) 0.014(4) 0.008(3) 0.002(2) 0 0
Co3 Co2+ 0.0118(3) 0.0068(4) 0.0091(3) 0.00106(19) 0 0
Co4 Co2+ 0.0082(3) 0.0063(3) 0.0095(3) -0.00072(13) 0 0
O1 O2- 0.0084(11) 0.0063(12) 0.0228(13) -0.0002(8) 0 0
O2 O2- 0.0118(11) 0.0074(11) 0.0114(10) 0.0004(8) 0 0
O3 O2- 0.0116(11) 0.0055(10) 0.0125(11) 0.0006(8) 0 0
O4 O2- 0.0087(11) 0.0075(11) 0.0227(12) 0.0001(8) 0 0
O5 O2- 0.0080(10) 0.0101(12) 0.0101(11) -0.0003(7) 0 0
B1 B3+ 0.0082(16) 0.0107(17) 0.0045(14) -0.0015(11) 0 0
#End of TTdata_422037-ICSD