
#(C) 2025 by FIZ Karlsruhe - Leibniz Institute for Information Infrastructure.  All rights reserved.
data_418183-ICSD
_database_code_ICSD 418183
_audit_creation_date 2008-02-01
_chemical_name_common 'Potassium boro silicide (7/7/39)'
_chemical_formula_structural 'K7 B7 Si39'
_chemical_formula_sum 'B7 K7 Si39'
_chemical_name_structure_type K8Si46
_exptl_crystal_density_diffrn 2.43
_diffrn_ambient_temperature 293.
_citation_title 'K7 B7 Si39, a borosilicide with the clathrate-I structure'
loop_
_citation_id
_citation_journal_full
_citation_year
_citation_journal_volume
_citation_page_first
_citation_page_last
_citation_journal_id_ASTM
primary 'Angewandte Chemie, International Edition' 2007 46 6725 6728 ACIEF5
loop_
_citation_author_citation_id
_citation_author_name
primary 'Jung, W.'
primary 'Loerincz, J.'
primary 'Ramlau, R.'
primary 'Borrmann, H.'
primary "Prots', Yu. (Prots, Yu.)"
primary 'Haarmann, F.'
primary 'Schnelle, W.'
primary 'Burkhardt, U.'
primary 'Baitinger, M.'
primary "Grin', Yu. (Hrin', Yu."
primary ' Grin, Yu.'
primary ' Hrin, Yu.)'
_cell_length_a 9.9520(10)
_cell_length_b 9.9520(10)
_cell_length_c 9.9520(10)
_cell_angle_alpha 90.
_cell_angle_beta 90.
_cell_angle_gamma 90.
_cell_volume 985.67
_cell_formula_units_Z 1
_space_group_name_H-M_alt 'P m -3 n'
_space_group_IT_number 223
loop_
_space_group_symop_id
_space_group_symop_operation_xyz
1 'z+1/2, -y+1/2, x+1/2'
2 'y+1/2, -x+1/2, z+1/2'
3 'x+1/2, -z+1/2, y+1/2'
4 '-z+1/2, y+1/2, -x+1/2'
5 '-y+1/2, x+1/2, -z+1/2'
6 '-x+1/2, z+1/2, -y+1/2'
7 'z+1/2, y+1/2, -x+1/2'
8 'y+1/2, x+1/2, -z+1/2'
9 'x+1/2, z+1/2, -y+1/2'
10 '-z+1/2, -y+1/2, x+1/2'
11 '-y+1/2, -x+1/2, z+1/2'
12 '-x+1/2, -z+1/2, y+1/2'
13 '-z+1/2, y+1/2, x+1/2'
14 '-y+1/2, x+1/2, z+1/2'
15 '-x+1/2, z+1/2, y+1/2'
16 'z+1/2, -y+1/2, -x+1/2'
17 'y+1/2, -x+1/2, -z+1/2'
18 'x+1/2, -z+1/2, -y+1/2'
19 '-z+1/2, -y+1/2, -x+1/2'
20 '-y+1/2, -x+1/2, -z+1/2'
21 '-x+1/2, -z+1/2, -y+1/2'
22 'z+1/2, y+1/2, x+1/2'
23 'y+1/2, x+1/2, z+1/2'
24 'x+1/2, z+1/2, y+1/2'
25 'z, x, -y'
26 'y, z, -x'
27 'x, y, -z'
28 '-z, -x, y'
29 '-y, -z, x'
30 '-x, -y, z'
31 'z, -x, y'
32 'y, -z, x'
33 'x, -y, z'
34 '-z, x, -y'
35 '-y, z, -x'
36 '-x, y, -z'
37 '-z, x, y'
38 '-y, z, x'
39 '-x, y, z'
40 'z, -x, -y'
41 'y, -z, -x'
42 'x, -y, -z'
43 '-z, -x, -y'
44 '-y, -z, -x'
45 '-x, -y, -z'
46 'z, x, y'
47 'y, z, x'
48 'x, y, z'
loop_
_atom_type_symbol
_atom_type_oxidation_number
K1+ 1
Si0+ 0
B1- -1.033
Si0+ 0
B1- -1.033
Si0+ 0
loop_
_atom_site_label
_atom_site_type_symbol
_atom_site_symmetry_multiplicity
_atom_site_Wyckoff_symbol
_atom_site_fract_x
_atom_site_fract_y
_atom_site_fract_z
_atom_site_U_iso_or_equiv
_atom_site_occupancy
K1 K1+ 2 a 0 0 0 0.0062(2) 0.518(10)
K2 K1+ 6 c 0.25 0 0.5 0.0190(3) 1.
Si1 Si0+ 6 d 0.25 0.5 0 0.0059(2) 1.
Si2 Si0+ 16 i 0.1828(2) 0.1828(2) 0.1828(2) 0.0062(2) 0.287(9)
B1 B1- 16 i 0.1828(2) 0.1828(2) 0.1828(2) 0.0062(2) 0.213(9)
Si3 Si0+ 16 i 0.1974(2) 0.1974(2) 0.1974(2) 0.0051(2) 0.288(9)
B2 B1- 16 i 0.1974(2) 0.1974(2) 0.1974(2) 0.0051(2) 0.212(9)
Si4 Si0+ 24 k 0 0.1159(4) 0.3069(4) 0.0062(6) 0.317(11)
Si5 Si0+ 48 l 0.0145(2) 0.1252(2) 0.2924(2) 0.0065(4) 0.347(3)
loop_
_atom_site_aniso_label
_atom_site_aniso_type_symbol
_atom_site_aniso_U_11
_atom_site_aniso_U_22
_atom_site_aniso_U_33
_atom_site_aniso_U_12
_atom_site_aniso_U_13
_atom_site_aniso_U_23
K1 K1+ 0.0062(4) 0.0062(4) 0.0062(4) 0 0 0
K2 K1+ 0.0129(6) 0.0220(5) 0.0220(5) 0 0 0
Si1 Si0+ 0.0070(6) 0.0053(3) 0.0053(3) 0 0 0
Si2 Si0+ 0.0062(4) 0.0062(4) 0.0062(4) -0.0012(4) -0.0012(4) -0.0012(4)
B1 B1- 0.0062(4) 0.0062(4) 0.0062(4) -0.0012(4) -0.0012(4) -0.0012(4)
Si3 Si0+ 0.0051(4) 0.0051(4) 0.0051(4) 0.0003(4) 0.0003(4) 0.0003(4)
B2 B1- 0.0051(4) 0.0051(4) 0.0051(4) 0.0003(4) 0.0003(4) 0.0003(4)
Si4 Si0+ 0.0071(10) 0.0058(11) 0.0057(9) 0 0 -0.0026(8)
Si5 Si0+ 0.0055(9) 0.0065(6) 0.0075(5) -0.0007(4) 0.0001(5) -0.0012(5)
#End of TTdata_418183-ICSD