
#(C) 2025 by FIZ Karlsruhe - Leibniz Institute for Information Infrastructure.  All rights reserved.
data_236333-ICSD
_database_code_ICSD 236333
_audit_creation_date 2014-02-01
_chemical_name_common 'Barium gallium potassium stannide (0.3/8.5/7.7/37.5)'
_chemical_formula_structural 'Ba0.28 Ga8.50 K7.70 Sn37.50'
_chemical_formula_sum 'Ba0.28 Ga8.5 K7.7 Sn37.5'
_chemical_name_structure_type K8Si46
_exptl_crystal_density_diffrn 5.25
_diffrn_ambient_temperature 200.
_citation_title

;
K and Ba distribution in the structures of the clathrate compounds Kx Ba16-x
(Ga,Sn)136 (x = 0.8, 4.4, and 12.9) and Kx Ba8-x (Ga,Sn)46 (x = 0.3)
;
loop_
_citation_id
_citation_journal_full
_citation_year
_citation_journal_volume
_citation_page_first
_citation_page_last
_citation_journal_id_ASTM
primary 'Acta Crystallographica, Section C: Crystal Structure Communications'
2013 69 319 323 ACSCEE
loop_
_citation_author_citation_id
_citation_author_name
primary 'Schaefer, Marion C.'
primary 'Bobev, Svilen'
_cell_length_a 11.9447(4)
_cell_length_b 11.9447(4)
_cell_length_c 11.9447(4)
_cell_angle_alpha 90.
_cell_angle_beta 90.
_cell_angle_gamma 90.
_cell_volume 1704.22
_cell_formula_units_Z 1
_space_group_name_H-M_alt 'P m -3 n'
_space_group_IT_number 223
loop_
_space_group_symop_id
_space_group_symop_operation_xyz
1 'z+1/2, -y+1/2, x+1/2'
2 'y+1/2, -x+1/2, z+1/2'
3 'x+1/2, -z+1/2, y+1/2'
4 '-z+1/2, y+1/2, -x+1/2'
5 '-y+1/2, x+1/2, -z+1/2'
6 '-x+1/2, z+1/2, -y+1/2'
7 'z+1/2, y+1/2, -x+1/2'
8 'y+1/2, x+1/2, -z+1/2'
9 'x+1/2, z+1/2, -y+1/2'
10 '-z+1/2, -y+1/2, x+1/2'
11 '-y+1/2, -x+1/2, z+1/2'
12 '-x+1/2, -z+1/2, y+1/2'
13 '-z+1/2, y+1/2, x+1/2'
14 '-y+1/2, x+1/2, z+1/2'
15 '-x+1/2, z+1/2, y+1/2'
16 'z+1/2, -y+1/2, -x+1/2'
17 'y+1/2, -x+1/2, -z+1/2'
18 'x+1/2, -z+1/2, -y+1/2'
19 '-z+1/2, -y+1/2, -x+1/2'
20 '-y+1/2, -x+1/2, -z+1/2'
21 '-x+1/2, -z+1/2, -y+1/2'
22 'z+1/2, y+1/2, x+1/2'
23 'y+1/2, x+1/2, z+1/2'
24 'x+1/2, z+1/2, y+1/2'
25 'z, x, -y'
26 'y, z, -x'
27 'x, y, -z'
28 '-z, -x, y'
29 '-y, -z, x'
30 '-x, -y, z'
31 'z, -x, y'
32 'y, -z, x'
33 'x, -y, z'
34 '-z, x, -y'
35 '-y, z, -x'
36 '-x, y, -z'
37 '-z, x, y'
38 '-y, z, x'
39 '-x, y, z'
40 'z, -x, -y'
41 'y, -z, -x'
42 'x, -y, -z'
43 '-z, -x, -y'
44 '-y, -z, -x'
45 '-x, -y, -z'
46 'z, x, y'
47 'y, z, x'
48 'x, y, z'
loop_
_atom_type_symbol
_atom_type_oxidation_number
Sn0+ 0
Ga0+ 0
Sn0+ 0
Ga0+ 0
Sn0+ 0
Ga0+ 0
K0+ 0
Ba0+ 0
loop_
_atom_site_label
_atom_site_type_symbol
_atom_site_symmetry_multiplicity
_atom_site_Wyckoff_symbol
_atom_site_fract_x
_atom_site_fract_y
_atom_site_fract_z
_atom_site_U_iso_or_equiv
_atom_site_occupancy
Sn1 Sn0+ 24 k 0.38232(4) 0.5 0.18776(4) 0.01392(15) 0.84
Ga1 Ga0+ 24 k 0.38232(4) 0.5 0.18776(4) 0.01392(15) 0.16
Sn2 Sn0+ 16 i 0.18322(2) 0.18322(2) 0.18322(2) 0.01306(18) 0.896(8)
Ga2 Ga0+ 16 i 0.18322(2) 0.18322(2) 0.18322(2) 0.01306(18) 0.104(8)
Sn3 Sn0+ 6 d 0.25 0.5 0. 0.0148(2) 0.54
Ga3 Ga0+ 6 d 0.25 0.5 0. 0.0148(2) 0.46
K1 K0+ 24 k 0.5 0.254(3) 0.0235(19) 0.038(5) 0.25
K2 K0+ 2 a 0. 0. 0. 0.0255(8) 0.86
Ba1 Ba0+ 2 a 0. 0. 0. 0.0255(8) 0.14
loop_
_atom_site_aniso_label
_atom_site_aniso_type_symbol
_atom_site_aniso_U_11
_atom_site_aniso_U_22
_atom_site_aniso_U_33
_atom_site_aniso_U_12
_atom_site_aniso_U_13
_atom_site_aniso_U_23
Sn1 Sn0+ 0.0138(2) 0.0135(2) 0.0144(2) 0. 0.00024(17) 0.
Ga1 Ga0+ 0.0138(2) 0.0135(2) 0.0144(2) 0. 0.00024(17) 0.
Sn2 Sn0+ 0.01306(18) 0.01306(18) 0.01306(18) -0.00054(11) -0.00054(11)
-0.00054(11)
Ga2 Ga0+ 0.01306(18) 0.01306(18) 0.01306(18) -0.00054(11) -0.00054(11)
-0.00054(11)
Sn3 Sn0+ 0.0140(5) 0.0153(3) 0.0153(3) 0. 0. 0.
Ga3 Ga0+ 0.0140(5) 0.0153(3) 0.0153(3) 0. 0. 0.
K1 K0+ 0.035(8) 0.027(6) 0.051(11) 0. 0. -0.015(8)
K2 K0+ 0.0255(8) 0.0255(8) 0.0255(8) 0. 0. 0.
Ba1 Ba0+ 0.0255(8) 0.0255(8) 0.0255(8) 0. 0. 0.
#End of TTdata_236333-ICSD