
#(C) 2025 by FIZ Karlsruhe - Leibniz Institute for Information Infrastructure.  All rights reserved.
data_195794-ICSD
_database_code_ICSD 195794
_audit_creation_date 2016-02-01
_chemical_name_common 'Barium copper germanium tin (8/5.1/40.2/0.7)'
_chemical_formula_structural 'Ba8 (Cu5.1 Ge0.9) (Ge39.3 Sn0.7)'
_chemical_formula_sum 'Ba8 Cu5.1 Ge40.2 Sn0.7'
_chemical_name_structure_type K8Si46
_exptl_crystal_density_diffrn 6.04
_diffrn_ambient_temperature 293.
_citation_title

;
Structure and thermoelectric properties of the n-type clathrate Ba8 Cu5.1
Ge40.2 Sn0.7
;
loop_
_citation_id
_citation_journal_full
_citation_year
_citation_journal_volume
_citation_page_first
_citation_page_last
_citation_journal_id_ASTM
primary
'Journal of Materials Chemistry A: Materials for Energy and Sustainability' 2015 3 19100 19106 JMCAET
loop_
_citation_author_citation_id
_citation_author_name
primary 'Xu, Jingtao'
primary 'Wu, Jiazhen'
primary 'Shao, Hezhu'
primary 'Heguri, Satoshi'
primary 'Tanabe, Yoichi'
primary 'Liu, Yongfu'
primary 'Liu, Guo-Qiang'
primary 'Jiang, Jun'
primary 'Jiang, Haochuan'
primary 'Tanigaki, Katsumi'
_cell_length_a 10.6742(10)
_cell_length_b 10.6742(10)
_cell_length_c 10.6742(10)
_cell_angle_alpha 90.
_cell_angle_beta 90.
_cell_angle_gamma 90.
_cell_volume 1216.2
_cell_formula_units_Z 1
_space_group_name_H-M_alt 'P m -3 n'
_space_group_IT_number 223
loop_
_space_group_symop_id
_space_group_symop_operation_xyz
1 'z+1/2, -y+1/2, x+1/2'
2 'y+1/2, -x+1/2, z+1/2'
3 'x+1/2, -z+1/2, y+1/2'
4 '-z+1/2, y+1/2, -x+1/2'
5 '-y+1/2, x+1/2, -z+1/2'
6 '-x+1/2, z+1/2, -y+1/2'
7 'z+1/2, y+1/2, -x+1/2'
8 'y+1/2, x+1/2, -z+1/2'
9 'x+1/2, z+1/2, -y+1/2'
10 '-z+1/2, -y+1/2, x+1/2'
11 '-y+1/2, -x+1/2, z+1/2'
12 '-x+1/2, -z+1/2, y+1/2'
13 '-z+1/2, y+1/2, x+1/2'
14 '-y+1/2, x+1/2, z+1/2'
15 '-x+1/2, z+1/2, y+1/2'
16 'z+1/2, -y+1/2, -x+1/2'
17 'y+1/2, -x+1/2, -z+1/2'
18 'x+1/2, -z+1/2, -y+1/2'
19 '-z+1/2, -y+1/2, -x+1/2'
20 '-y+1/2, -x+1/2, -z+1/2'
21 '-x+1/2, -z+1/2, -y+1/2'
22 'z+1/2, y+1/2, x+1/2'
23 'y+1/2, x+1/2, z+1/2'
24 'x+1/2, z+1/2, y+1/2'
25 'z, x, -y'
26 'y, z, -x'
27 'x, y, -z'
28 '-z, -x, y'
29 '-y, -z, x'
30 '-x, -y, z'
31 'z, -x, y'
32 'y, -z, x'
33 'x, -y, z'
34 '-z, x, -y'
35 '-y, z, -x'
36 '-x, y, -z'
37 '-z, x, y'
38 '-y, z, x'
39 '-x, y, z'
40 'z, -x, -y'
41 'y, -z, -x'
42 'x, -y, -z'
43 '-z, -x, -y'
44 '-y, -z, -x'
45 '-x, -y, -z'
46 'z, x, y'
47 'y, z, x'
48 'x, y, z'
loop_
_atom_type_symbol
_atom_type_oxidation_number
Ba0+ 0
Ge0+ 0
Sn0+ 0
Ge0+ 0
Cu0+ 0
Ge0+ 0
loop_
_atom_site_label
_atom_site_type_symbol
_atom_site_symmetry_multiplicity
_atom_site_Wyckoff_symbol
_atom_site_fract_x
_atom_site_fract_y
_atom_site_fract_z
_atom_site_U_iso_or_equiv
_atom_site_occupancy
Ba1 Ba0+ 2 a 0. 0. 0. 0.00540(11) 1
Ba2 Ba0+ 24 k 0. 0.498(2) 0.2434(10) 0.0200(4) 0.25
Ge1 Ge0+ 24 k 0.11986(3) 0.31465(3) 0. 0.00341(6) 0.97
Sn1 Sn0+ 24 k 0.11986(3) 0.31465(3) 0. 0.00341(6) 0.03
Ge2 Ge0+ 16 i 0.183231(18) 0.183231(18) 0.183231(18) 0.00203(6) 1
Cu1 Cu0+ 6 d 0.25 0.5 0. 0.00319(14) 0.85
Ge3 Ge0+ 6 d 0.25 0.5 0. 0.00319(14) 0.15
loop_
_atom_site_aniso_label
_atom_site_aniso_type_symbol
_atom_site_aniso_U_11
_atom_site_aniso_U_22
_atom_site_aniso_U_33
_atom_site_aniso_U_12
_atom_site_aniso_U_13
_atom_site_aniso_U_23
Ba1 Ba0+ 0.00540(11) 0.00540(11) 0.00540(11) 0. 0. 0.
Ba2 Ba0+ 0.0077(6) 0.0428(16) 0.0095(17) 0. 0. 0.0132(18)
Ge1 Ge0+ 0.00412(14) 0.00383(13) 0.00229(13) 0.00142(13) 0. 0.
Sn1 Sn0+ 0.00412(14) 0.00383(13) 0.00229(13) 0.00142(13) 0. 0.
Ge2 Ge0+ 0.00203(6) 0.00203(6) 0.00203(6) -0.00041(7) -0.00041(7) -0.00041(7)
Cu1 Cu0+ 0.0051(3) 0.00225(19) 0.00225(19) 0. 0. 0.
Ge3 Ge0+ 0.0051(3) 0.00225(19) 0.00225(19) 0. 0. 0.
#End of TTdata_195794-ICSD