
#(C) 2025 by FIZ Karlsruhe - Leibniz Institute for Information Infrastructure.  All rights reserved.
data_409928-ICSD
_database_code_ICSD 409928
_audit_creation_date 2008-08-01
_chemical_name_common 'Silicon phosphorus telluride (31.3/14.7/7.35)'
_chemical_formula_structural 'Si31.3 P14.7 Te7.35'
_chemical_formula_sum 'P14.7 Si31.3 Te7.35'
_chemical_name_structure_type K8Si46
_exptl_crystal_density_diffrn 3.81
_diffrn_ambient_temperature 295.
_citation_title

;
Crystal structure of silicon phosphorus telluride, Si(46 - x) P(x) Te(y) (y =
7.35, 6.98, 6.88; x <= 2y), a cationic clathrate-I
;
loop_
_citation_id
_citation_journal_full
_citation_year
_citation_journal_volume
_citation_page_first
_citation_page_last
_citation_journal_id_ASTM
primary 'Zeitschrift fuer Kristallographie - New Crystal Structures' 2007 222
177 178 ZKNSFT
loop_
_citation_author_citation_id
_citation_author_name
primary 'Zaikina, J.V.'
primary 'Kovnir, K.A.'
primary 'Schwarz, U.'
primary 'Borrmann, H.'
primary 'Shevelkov, A.V.'
_cell_length_a 9.9702(3)
_cell_length_b 9.9702(3)
_cell_length_c 9.9702(3)
_cell_angle_alpha 90
_cell_angle_beta 90
_cell_angle_gamma 90
_cell_volume 991.09
_cell_formula_units_Z 1
_space_group_name_H-M_alt 'P m -3'
_space_group_IT_number 200
loop_
_space_group_symop_id
_space_group_symop_operation_xyz
1 '-z, x, y'
2 'z, x, -y'
3 'z, -x, y'
4 '-z, -x, -y'
5 'y, -z, x'
6 '-y, z, x'
7 'y, z, -x'
8 '-y, -z, -x'
9 'x, y, -z'
10 'x, -y, z'
11 '-x, y, z'
12 '-x, -y, -z'
13 'z, -x, -y'
14 '-z, -x, y'
15 '-z, x, -y'
16 'z, x, y'
17 '-y, z, -x'
18 'y, -z, -x'
19 '-y, -z, x'
20 'y, z, x'
21 '-x, -y, z'
22 '-x, y, -z'
23 'x, -y, -z'
24 'x, y, z'
loop_
_atom_type_symbol
_atom_type_oxidation_number
Te0+ 0
P0+ 0
Si0+ 0
P0+ 0
Si0+ 0
P0+ 0
Si0+ 0
loop_
_atom_site_label
_atom_site_type_symbol
_atom_site_symmetry_multiplicity
_atom_site_Wyckoff_symbol
_atom_site_fract_x
_atom_site_fract_y
_atom_site_fract_z
_atom_site_U_iso_or_equiv
_atom_site_occupancy
Te1 Te0+ 1 a 0. 0. 0. 0.00658(2) 1
Te2 Te0+ 1 b 0.5 0.5 0.5 0.00727(9) 0.3472(16)
Te3 Te0+ 6 g 0.261824(9) 0.5 0. 0.01249(1) 1
P1 P0+ 6 f 0.24660(3) 0. 0.5 0.00676(9) 0.39(4)
Si1 Si0+ 6 f 0.24660(3) 0. 0.5 0.00676(9) 0.61(4)
P2 P0+ 8 i 0.184364(17) 0.184364(17) 0.184364(17) 0.00672(7) 0.11(3)
Si2 Si0+ 8 i 0.184364(17) 0.184364(17) 0.184364(17) 0.00672(7) 0.89(3)
P3 P0+ 8 i 0.316791(14) 0.316791(14) 0.316791(14) 0.00637(3) 1
P4 P0+ 12 j 0. 0.30857(3) 0.11716(2) 0.00723(5) 0.29(2)
Si3 Si0+ 12 j 0. 0.30857(3) 0.11716(2) 0.00723(5) 0.71(2)
Si4 Si0+ 12 k 0.5 0.38272(3) 0.19039(3) 0.00797(3) 1
loop_
_atom_site_aniso_label
_atom_site_aniso_type_symbol
_atom_site_aniso_U_11
_atom_site_aniso_U_22
_atom_site_aniso_U_33
_atom_site_aniso_U_12
_atom_site_aniso_U_13
_atom_site_aniso_U_23
Te1 Te0+ 0.00658(2) 0.00658(2) 0.00658(2) 0. 0. 0.
Te2 Te0+ 0.00727(9) 0.00727(9) 0.00727(9) 0. 0. 0.
Te3 Te0+ 0.01203(3) 0.00985(3) 0.01560(3) 0. 0. 0.
P1 P0+ 0.00643(12) 0.00599(12) 0.00786(12) 0. 0. 0.
Si1 Si0+ 0.00643(12) 0.00599(12) 0.00786(12) 0. 0. 0.
P2 P0+ 0.00672(7) 0.00672(7) 0.00672(7) 0.00003(3) 0.00003(3) 0.00003(3)
Si2 Si0+ 0.00672(7) 0.00672(7) 0.00672(7) 0.00003(3) 0.00003(3) 0.00003(3)
P3 P0+ 0.00637(3) 0.00637(3) 0.00637(3) -0.00018(3) -0.00018(3) -0.00018(3)
P4 P0+ 0.00689(8) 0.00756(8) 0.00722(8) 0. 0. -0.00144(5)
Si3 Si0+ 0.00689(8) 0.00756(8) 0.00722(8) 0. 0. -0.00144(5)
Si4 Si0+ 0.00859(8) 0.00865(8) 0.00667(7) 0. -0.00172(6) 0.
#End of TTdata_409928-ICSD