
#(C) 2024 by FIZ Karlsruhe - Leibniz Institute for Information Infrastructure.  All rights reserved.
data_190398-ICSD
_database_code_ICSD 190398
_audit_creation_date 2014-08-01
_chemical_name_common 'Yttrium manganate'
_chemical_formula_structural 'Y (Mn O3)'
_chemical_formula_sum 'Mn1 O3 Y1'
_exptl_crystal_density_diffrn 5.53
_diffrn_ambient_temperature 293.
_citation_title 'The magnetic structure of Y Mn O3 perovskite revisited'
loop_
_citation_id
_citation_journal_full
_citation_year
_citation_journal_volume
_citation_page_first
_citation_page_last
_citation_journal_id_ASTM
primary 'Journal of Physics: Condensed Matter' 2002 14 3285 3294 JCOMEL
loop_
_citation_author_citation_id
_citation_author_name
primary 'Munoz, A.'
primary 'Alonso, J.A.'
primary 'Casais, M.T.'
primary 'Martinez-Lope, M.J.'
primary 'Martinez, J.L.'
primary 'Fernandez-Diaz, M.T.'
_cell_length_a 5.970(9)
_cell_length_b 7.3606(11)
_cell_length_c 5.2404(9)
_cell_angle_alpha 90.
_cell_angle_beta 90.
_cell_angle_gamma 90.
_cell_volume 230.27
_cell_formula_units_Z 4
_space_group_name_H-M_alt 'P n m a'
_space_group_IT_number 62
loop_
_space_group_symop_id
_space_group_symop_operation_xyz
1 'x+1/2, y, -z+1/2'
2 'x, -y+1/2, z'
3 '-x+1/2, y+1/2, z+1/2'
4 '-x, -y, -z'
5 '-x+1/2, -y, z+1/2'
6 '-x, y+1/2, -z'
7 'x+1/2, -y+1/2, -z+1/2'
8 'x, y, z'
loop_
_atom_type_symbol
_atom_type_oxidation_number
Y3+ 3
Mn3+ 3
O2- -2
loop_
_atom_site_label
_atom_site_type_symbol
_atom_site_symmetry_multiplicity
_atom_site_Wyckoff_symbol
_atom_site_fract_x
_atom_site_fract_y
_atom_site_fract_z
_atom_site_B_iso_or_equiv
_atom_site_occupancy
Y1 Y3+ 4 c 0.0855 0.25 0.9819 . 1.
Mn1 Mn3+ 4 b 0 0 0.5 . 1.
O1 O2- 4 c 0.466 0.25 0.1093 . 1.
O2 O2- 8 d 0.3266 0.052 0.7005 . 1.
#End of TTdata_190398-ICSD