
#(C) 2024 by FIZ Karlsruhe - Leibniz Institute for Information Infrastructure.  All rights reserved.
data_203034-ICSD
_database_code_ICSD 203034
_audit_creation_date 1990-12-27
_audit_update_record 2007-08-01
_chemical_name_common 'Lithium hydrogen antimate (0.33/0.67/1)'
_chemical_formula_structural '(Li0.33 H0.67) (Sb O3)'
_chemical_formula_sum 'H0.67 Li0.33 O3 Sb1'
_exptl_crystal_density_diffrn 5.35
_citation_title

;
Li+ / H+ topotactic exchange on Li Sb O3: The series Li(1-x) Hx Sb O3
(0<=x<=1).
;
loop_
_citation_id
_citation_journal_full
_citation_year
_citation_journal_volume
_citation_page_first
_citation_page_last
_citation_journal_id_ASTM
primary 'Materials Research Bulletin' 1989 24 1207 1214 MRBUAC
loop_
_citation_author_citation_id
_citation_author_name
primary 'Fourquet, J.L.'
primary 'Gillet, P.A.'
primary 'Le Bail, A.'
_cell_length_a 5.2526(3)
_cell_length_b 4.7331(3)
_cell_length_c 8.6322(6)
_cell_angle_alpha 90.
_cell_angle_beta 90.8(5)
_cell_angle_gamma 90.
_cell_volume 214.58
_cell_formula_units_Z 4
_space_group_name_H-M_alt 'P 1 21/n 1'
_space_group_IT_number 14
loop_
_space_group_symop_id
_space_group_symop_operation_xyz
1 '-x+1/2, y+1/2, -z+1/2'
2 '-x, -y, -z'
3 'x+1/2, -y+1/2, z+1/2'
4 'x, y, z'
loop_
_atom_type_symbol
_atom_type_oxidation_number
Sb5+ 5
O2- -2
H1+ 1
Li1+ 1
loop_
_atom_site_label
_atom_site_type_symbol
_atom_site_symmetry_multiplicity
_atom_site_Wyckoff_symbol
_atom_site_fract_x
_atom_site_fract_y
_atom_site_fract_z
_atom_site_B_iso_or_equiv
_atom_site_occupancy
Sb1 Sb5+ 4 e 0.2517(2) 0.0111(5) 0.0971(1) 0.15(2) 1.
O1 O2- 4 e 0.405(1) 0.299(2) 0.241(1) 0.3(2) 1.
O2 O2- 4 e 0.942(2) 0.233(2) 0.056(1) 1.8(4) 1.
O3 O2- 4 e 0.410(2) 0.216(2) 0.905(1) 1.4(3) 1.
#End of TTdata_203034-ICSD