
#(C) 2024 by FIZ Karlsruhe - Leibniz Institute for Information Infrastructure.  All rights reserved.
data_118772-ICSD
_database_code_ICSD 118772
_audit_creation_date 2024-02-01
_chemical_name_common
'Calcium sodium aluminium silicon oxide (0.433/0.567/1.403/2.597/8)'
_chemical_formula_structural '(Ca0.433 Na0.567) (Al1.403 Si2.597) O8'
_chemical_formula_sum 'Al1.403 Ca0.433 Na0.567 O8 Si2.597'
_chemical_name_mineral Plagioclase
_exptl_crystal_density_diffrn 2.68
_diffrn_ambient_temperature 293.
_citation_title

;
Communication between cation environments in aluminosilicate frameworks:
incommensurately modulated crystal structure of an e-plagioclase
;
loop_
_citation_id
_citation_journal_full
_citation_year
_citation_journal_volume
_citation_page_first
_citation_page_last
_citation_journal_id_ASTM
primary

;
Acta Crystallographica, Section B: Structural Science, Crystal Engineering and
Materials
; 2016 72 787 801 ACSBDA
loop_
_citation_author_citation_id
_citation_author_name
primary 'Fredrickson, Rie T.'
primary 'Fredrickson, Daniel C.'
_cell_length_a 8.1590(9)
_cell_length_b 12.8579(12)
_cell_length_c 14.1875(19)
_cell_angle_alpha 93.369(9)
_cell_angle_beta 116.229(12)
_cell_angle_gamma 89.691(8)
_cell_volume 1332.46
_cell_formula_units_Z 8
_space_group_name_H-M_alt 'F 1'
_space_group_IT_number 1
loop_
_space_group_symop_id
_space_group_symop_operation_xyz
1 'x, y, z'
2 'x, y+1/2, z+1/2'
3 'x+1/2, y, z+1/2'
4 'x+1/2, y+1/2, z'
loop_
_atom_type_symbol
_atom_type_oxidation_number
Ca2+ 2
Na1+ 1
Ca2+ 2
Na1+ 1
Si4+ 4
Al3+ 3
Si4+ 4
Al3+ 3
Si4+ 4
Al3+ 3
Si4+ 4
Al3+ 3
Si4+ 4
Al3+ 3
Si4+ 4
Al3+ 3
Si4+ 4
Al3+ 3
Si4+ 4
Al3+ 3
O2- -2
loop_
_atom_site_label
_atom_site_type_symbol
_atom_site_symmetry_multiplicity
_atom_site_Wyckoff_symbol
_atom_site_fract_x
_atom_site_fract_y
_atom_site_fract_z
_atom_site_U_iso_or_equiv
_atom_site_occupancy
Ca1 Ca2+ 4 a 0.5370(2) 0.99007(19) 0.06202(18) 0.0608(11) 0.4241
Na1 Na1+ 4 a 0.5370(2) 0.99007(19) 0.06202(18) 0.0608(11) 0.5759
Ca2 Ca2+ 4 a 0.9989(4) 1.0253(3) 0.9030(3) 0.0180(8) 0.2295(18)
Ca3 Ca2+ 4 a 1.0057(9) 0.9669(5) 0.9337(6) 0.0180(8) 0.2295(18)
Na2 Na1+ 4 a 0.9916(9) 0.9610(5) 0.9436(5) 0.0180(8) 0.541(4)
Si1 Si4+ 4 a 0.7736(2) 0.31027(13) 0.10719(14) 0.0101(7) 0.6299
Al1 Al3+ 4 a 0.7736(2) 0.31027(13) 0.10719(14) 0.0101(7) 0.3701
Si2 Si4+ 4 a 0.0875(2) 0.61317(13) 0.31240(15) 0.0119(6) 0.722
Al2 Al3+ 4 a 0.0875(2) 0.61317(13) 0.31240(15) 0.0119(6) 0.278
Si3 Si4+ 4 a 0.9570(3) 0.10232(13) 0.14972(15) 0.0115(6) 0.8668
Al3 Al3+ 4 a 0.9570(3) 0.10232(13) 0.14972(15) 0.0115(6) 0.1332
Si4 Si4+ 4 a 0.0838(3) 0.38321(13) 0.33272(15) 0.0111(6) 0.6711
Al4 Al3+ 4 a 0.0838(3) 0.38321(13) 0.33272(15) 0.0111(6) 0.3289
Si5 Si4+ 4 a 0.7764(3) 0.65875(13) 0.09785(14) 0.0123(7) 0.4671
Al5 Al3+ 4 a 0.7764(3) 0.65875(13) 0.09785(14) 0.0123(7) 0.5329
Si6 Si4+ 4 a 0.7633(2) 0.32819(13) 0.88396(15) 0.0122(7) 0.3438
Al6 Al3+ 4 a 0.7633(2) 0.32819(13) 0.88396(15) 0.0122(7) 0.6562
Si7 Si4+ 4 a 0.9514(3) 0.87256(13) 0.16942(14) 0.0113(7) 0.6859
Al7 Al3+ 4 a 0.9514(3) 0.87256(13) 0.16942(14) 0.0113(7) 0.3142
Si8 Si4+ 4 a 0.2674(3) 0.17442(13) 0.37532(15) 0.0142(7) 0.8076
Al8 Al3+ 4 a 0.2674(3) 0.17442(13) 0.37532(15) 0.0142(7) 0.1924
O1 O2- 4 a 0.9716(7) 0.6005(4) 0.1847(4) 0.0168(18) 1
O2 O2- 4 a 0.2531(7) 0.3017(3) 0.3815(4) 0.023(2) 1
O3 O2- 4 a 0.4532(8) 0.1407(4) 0.3692(5) 0.026(2) 1
O4 O2- 4 a 0.8524(7) 0.9857(3) 0.1312(4) 0.0151(18) 1
O5 O2- 4 a 0.7662(8) 0.3641(4) 0.0010(4) 0.023(2) 1
O6 O2- 4 a 0.0800(7) 0.1248(4) 0.2758(4) 0.0207(19) 1
O7 O2- 4 a 0.7828(7) 0.7843(3) 0.1296(4) 0.0172(19) 1
O8 O2- 4 a 0.0785(7) 0.0979(3) 0.0833(4) 0.019(2) 1
O9 O2- 4 a 0.9541(7) 0.3844(3) 0.3932(4) 0.0201(19) 1
O10 O2- 4 a 0.7536(7) 0.1960(4) 0.8509(4) 0.021(2) 1
O11 O2- 4 a 0.1860(7) 0.4985(3) 0.3528(4) 0.0160(18) 1
O12 O2- 4 a 0.9584(7) 0.3600(4) 0.2069(4) 0.024(2) 1
O13 O2- 4 a 0.2720(7) 0.1227(4) 0.4782(4) 0.0199(19) 1
O14 O2- 4 a 0.5879(8) 0.3469(4) 0.1150(5) 0.025(2) 1
O15 O2- 4 a 0.0745(7) 0.8830(4) 0.2999(4) 0.023(2) 1
O16 O2- 4 a 0.7859(7) 0.1804(4) 0.0999(4) 0.0181(18) 1
loop_
_atom_site_aniso_label
_atom_site_aniso_type_symbol
_atom_site_aniso_U_11
_atom_site_aniso_U_22
_atom_site_aniso_U_33
_atom_site_aniso_U_12
_atom_site_aniso_U_13
_atom_site_aniso_U_23
Ca1 Ca2+ 0.0103(11) 0.0975(19) 0.0563(15) -0.0027(10) 0.0057(10) -0.0589(14)
Na1 Na1+ 0.0103(11) 0.0975(19) 0.0563(15) -0.0027(10) 0.0057(10) -0.0589(14)
Ca2 Ca2+ 0.0103(13) 0.0214(9) 0.0211(12) -0.0005(8) 0.0071(8) -0.0086(8)
Ca3 Ca2+ 0.0103(13) 0.0214(9) 0.0211(12) -0.0005(8) 0.0071(8) -0.0086(8)
Na2 Na1+ 0.0103(13) 0.0214(9) 0.0211(12) -0.0005(8) 0.0071(8) -0.0086(8)
Si1 Si4+ 0.0085(10) 0.0142(8) 0.0071(8) 0.0048(6) 0.0029(8) 0.0017(7)
Al1 Al3+ 0.0085(10) 0.0142(8) 0.0071(8) 0.0048(6) 0.0029(8) 0.0017(7)
Si2 Si4+ 0.0094(9) 0.0125(8) 0.0129(9) 0.0020(6) 0.0042(7) 0.0015(7)
Al2 Al3+ 0.0094(9) 0.0125(8) 0.0129(9) 0.0020(6) 0.0042(7) 0.0015(7)
Si3 Si4+ 0.0109(9) 0.0100(7) 0.0127(9) 0.0007(6) 0.0046(7) 0.0000(7)
Al3 Al3+ 0.0109(9) 0.0100(7) 0.0127(9) 0.0007(6) 0.0046(7) 0.0000(7)
Si4 Si4+ 0.0129(9) 0.0107(7) 0.0096(8) 0.0004(6) 0.0047(7) 0.0007(7)
Al4 Al3+ 0.0129(9) 0.0107(7) 0.0096(8) 0.0004(6) 0.0047(7) 0.0007(7)
Si5 Si4+ 0.0153(10) 0.0127(8) 0.0093(8) -0.0023(6) 0.0059(8) -0.0007(7)
Al5 Al3+ 0.0153(10) 0.0127(8) 0.0093(8) -0.0023(6) 0.0059(8) -0.0007(7)
Si6 Si4+ 0.0097(10) 0.0162(8) 0.0109(8) -0.0019(7) 0.0048(7) 0.0018(7)
Al6 Al3+ 0.0097(10) 0.0162(8) 0.0109(8) -0.0019(7) 0.0048(7) 0.0018(7)
Si7 Si4+ 0.0146(10) 0.0114(8) 0.0086(9) -0.0016(6) 0.0056(8) 0.0014(7)
Al7 Al3+ 0.0146(10) 0.0114(8) 0.0086(9) -0.0016(6) 0.0056(8) 0.0014(7)
Si8 Si4+ 0.0157(11) 0.0154(8) 0.0120(9) 0.0021(7) 0.0069(8) -0.0013(7)
Al8 Al3+ 0.0157(11) 0.0154(8) 0.0120(9) 0.0021(7) 0.0069(8) -0.0013(7)
O1 O2- 0.019(3) 0.014(2) 0.013(2) 0.0015(18) 0.003(2) 0.0013(19)
O2 O2- 0.026(3) 0.014(2) 0.024(3) 0.0110(19) 0.006(2) 0.000(2)
O3 O2- 0.020(3) 0.029(2) 0.028(3) 0.002(2) 0.011(3) -0.003(2)
O4 O2- 0.023(3) 0.0144(19) 0.012(2) 0.0026(17) 0.011(2) 0.0058(19)
O5 O2- 0.034(3) 0.020(2) 0.019(2) 0.005(2) 0.016(2) 0.002(2)
O6 O2- 0.023(3) 0.016(2) 0.014(2) 0.0104(19) 0.000(2) 0.000(2)
O7 O2- 0.020(3) 0.015(2) 0.017(2) -0.0086(18) 0.008(2) -0.0046(19)
O8 O2- 0.028(3) 0.019(2) 0.015(2) -0.0053(19) 0.014(2) -0.0055(19)
O9 O2- 0.012(2) 0.021(2) 0.027(3) -0.0023(18) 0.010(2) 0.002(2)
O10 O2- 0.016(3) 0.026(2) 0.021(3) 0.0010(19) 0.007(2) 0.006(2)
O11 O2- 0.012(2) 0.0125(19) 0.018(3) -0.0061(17) 0.002(2) -0.0003(19)
O12 O2- 0.014(3) 0.031(2) 0.018(3) -0.009(2) -0.001(2) -0.007(2)
O13 O2- 0.022(3) 0.027(2) 0.011(2) -0.0026(19) 0.007(2) 0.002(2)
O14 O2- 0.021(3) 0.026(2) 0.038(4) 0.0019(19) 0.023(3) -0.001(2)
O15 O2- 0.017(3) 0.029(2) 0.015(3) 0.000(2) 0.001(2) 0.002(2)
O16 O2- 0.013(3) 0.024(2) 0.013(2) 0.0026(18) 0.002(2) -0.002(2)
#End of TTdata_118772-ICSD