
#(C) 2024 by FIZ Karlsruhe - Leibniz Institute for Information Infrastructure.  All rights reserved.
data_260219-ICSD
_database_code_ICSD 260219
_audit_creation_date 2009-08-01
_chemical_name_common 'Silver germanium gadolinium sulfide (0.63/1/3/7)'
_chemical_formula_structural 'Ag0.63 Ge Gd3 S7'
_chemical_formula_sum 'Ag0.63 Gd3 Ge1 S7'
_chemical_name_structure_type La3Mn0.5SiS7
_exptl_crystal_density_diffrn 5.61
_diffrn_ambient_temperature 295.
_citation_title

;
Ln3 M1 - T X7 - quasi - isostructural compounds: stereochemistry and silver -
ion motion in the Ln3 Ag1 - Ge S7 (Ln = La - Nd, Sm, Gd - Er and Y;  = 0.11 -
0.50) compounds
;
loop_
_citation_id
_citation_journal_full
_citation_year
_citation_journal_volume
_citation_page_first
_citation_page_last
_citation_journal_id_ASTM
primary 'Acta Crystallographica, Section B: Structural Science' 2009 65 126 133
ASBSDK
loop_
_citation_author_citation_id
_citation_author_name
primary 'Daszkiewicz, M.'
primary 'Gulay, L.D.'
primary 'Lychmanyuk, O.S.'
_cell_length_a 9.9637(14)
_cell_length_b 9.9637(14)
_cell_length_c 5.7660(12)
_cell_angle_alpha 90.
_cell_angle_beta 90.
_cell_angle_gamma 120.
_cell_volume 495.73
_cell_formula_units_Z 2
_space_group_name_H-M_alt 'P 63'
_space_group_IT_number 173
loop_
_space_group_symop_id
_space_group_symop_operation_xyz
1 'x-y, x, z+1/2'
2 'y, -x+y, z+1/2'
3 '-x, -y, z+1/2'
4 '-x+y, -x, z'
5 '-y, x-y, z'
6 'x, y, z'
loop_
_atom_type_symbol
_atom_type_oxidation_number
Gd3+ 3
Ag1+ 1
Ge4+ 4
S2- -2
loop_
_atom_site_label
_atom_site_type_symbol
_atom_site_symmetry_multiplicity
_atom_site_Wyckoff_symbol
_atom_site_fract_x
_atom_site_fract_y
_atom_site_fract_z
_atom_site_U_iso_or_equiv
_atom_site_occupancy
Gd1 Gd3+ 6 c 0.86849(2) 0.64152(2) 0.24476(11) 0.01184(9) 1
Ag1 Ag1+ 2 a 0. 0. 0.085(4) 0.093(5) 0.50(2)
Ag2 Ag1+ 2 a 0. 0. 0.9545(16) 0.014(4) 0.12(2)
Ge1 Ge4+ 2 b 0.3333 0.6667 0.32630(13) 0.00836(18) 1
S1 S2- 2 b 0.3333 0.6667 0.9488(3) 0.0104(4) 1
S2 S2- 6 c 0.90148(13) 0.73723(14) 0.7161(2) 0.0172(3) 1
S3 S2- 6 c 0.58053(14) 0.47996(13) 0.9842(2) 0.0106(2) 1
loop_
_atom_site_aniso_label
_atom_site_aniso_type_symbol
_atom_site_aniso_U_11
_atom_site_aniso_U_22
_atom_site_aniso_U_33
_atom_site_aniso_U_12
_atom_site_aniso_U_13
_atom_site_aniso_U_23
Gd1 Gd3+ 0.00971(12) 0.00902(11) 0.01695(12) 0.00480(8) -0.00176(12)
-0.00048(12)
Ag1 Ag1+ 0.0102(9) 0.0102(9) 0.258(16) 0.0051(4) 0. 0.
Ag2 Ag1+ 0.011(3) 0.011(3) 0.020(12) 0.0055(13) 0. 0.
Ge1 Ge4+ 0.0092(2) 0.0092(2) 0.0068(3) 0.00458(12) 0. 0.
S1 S2- 0.0117(6) 0.0117(6) 0.0077(9) 0.0058(3) 0. 0.
S2 S2- 0.0114(5) 0.0237(6) 0.0182(7) 0.0100(5) -0.0006(5) -0.0076(6)
S3 S2- 0.0135(6) 0.0104(5) 0.0099(4) 0.0073(5) 0.0003(5) 0.0003(5)
#End of TTdata_260219-ICSD