
#(C) 2024 by FIZ Karlsruhe - Leibniz Institute for Information Infrastructure.  All rights reserved.
data_189790-ICSD
_database_code_ICSD 189790
_audit_creation_date 2014-02-01
_chemical_name_common 'Dibismuth niobium pentaoxide fluoride'
_chemical_formula_structural 'Bi2 Nb O5 F'
_chemical_formula_sum 'Bi2 F1 Nb1 O5'
_chemical_name_structure_type Russelite#Bi2WO6
_exptl_crystal_density_diffrn 8.25
_diffrn_ambient_temperature 373.
_citation_title

;
Crystal structure and electrical characterization of Bi2 Nb O5 F: an
Aurivillius oxide fluoride
;
loop_
_citation_id
_citation_journal_full
_citation_year
_citation_journal_volume
_citation_page_first
_citation_page_last
_citation_journal_id_ASTM
primary 'Journal of Materials Chemistry' 2007 17 1193 1200 JMACEP
loop_
_citation_author_citation_id
_citation_author_name
primary 'McCabe, E.E.'
primary 'Jones, I.P.'
primary 'Zhang, D.'
primary 'Hyatt, N.C.'
primary 'Greaves, C.'
_cell_length_a 5.4296(8)
_cell_length_b 5.4279(8)
_cell_length_c 16.6580(7)
_cell_angle_alpha 90.
_cell_angle_beta 90.
_cell_angle_gamma 90.
_cell_volume 490.93
_cell_formula_units_Z 4
_space_group_name_H-M_alt 'P b c a'
_space_group_IT_number 61
loop_
_space_group_symop_id
_space_group_symop_operation_xyz
1 'x+1/2, y, -z+1/2'
2 'x, -y+1/2, z+1/2'
3 '-x+1/2, y+1/2, z'
4 '-x, -y, -z'
5 '-x+1/2, -y, z+1/2'
6 '-x, y+1/2, -z+1/2'
7 'x+1/2, -y+1/2, -z'
8 'x, y, z'
loop_
_atom_type_symbol
_atom_type_oxidation_number
Bi3+ 3
Nb5+ 5
O2- -2
F1- -1
O2- -2
F1- -1
O2- -2
F1- -1
loop_
_atom_site_label
_atom_site_type_symbol
_atom_site_symmetry_multiplicity
_atom_site_Wyckoff_symbol
_atom_site_fract_x
_atom_site_fract_y
_atom_site_fract_z
_atom_site_U_iso_or_equiv
_atom_site_occupancy
Bi1 Bi3+ 8 c 0.000(1) 0.501(1) 0.1746(1) 0.0250(6) 1.
Nb1 Nb5+ 4 a 0 0 0 0.0201(9) 1.
O1 O2- 8 c 0.252(1) 0.247(1) 0.2478(4) 0.0140(7) 0.8333
F1 F1- 8 c 0.252(1) 0.247(1) 0.2478(4) 0.0140(7) 0.1667
O2 O2- 8 c 0.210(1) 0.209(1) 0.4857(3) 0.034(1) 0.8333
F2 F1- 8 c 0.210(1) 0.209(1) 0.4857(3) 0.034(1) 0.1667
O3 O2- 8 c 0.033(2) 0.029(2) 0.1176(2) 0.041(1) 0.8333
F3 F1- 8 c 0.033(2) 0.029(2) 0.1176(2) 0.041(1) 0.1667
#End of TTdata_189790-ICSD