
#(C) 2023 by FIZ Karlsruhe - Leibniz Institute for Information Infrastructure.  All rights reserved.
data_246806-ICSD
_database_code_ICSD 246806
_audit_creation_date 2010-02-01
_chemical_name_common 'Lanthanum silicide (1/10)'
_chemical_formula_structural 'La Si10'
_chemical_formula_sum 'La1 Si10'
_chemical_name_structure_type LaSi10
_exptl_crystal_density_diffrn 3.68
_citation_title

;
Phase diagram of the La-Si binary system under high pressure and the
structures of superconducting La Si5 and La Si10
;
loop_
_citation_id
_citation_journal_full
_citation_year
_citation_journal_volume
_citation_page_first
_citation_page_last
_citation_journal_id_ASTM
primary 'Journal of Solid State Chemistry' 2009 182 1991 2003 JSSCBI
loop_
_citation_author_citation_id
_citation_author_name
primary 'Yamanaka, S.'
primary 'Izumi, S.'
primary 'Maekawa, S.'
primary 'Umemoto, K.'
_cell_length_a 9.623(4)
_cell_length_b 9.623(4)
_cell_length_c 4.723(3)
_cell_angle_alpha 90.
_cell_angle_beta 90.
_cell_angle_gamma 120.
_cell_volume 378.76
_cell_formula_units_Z 2
_space_group_name_H-M_alt 'P 63/m m c'
_space_group_IT_number 194
loop_
_space_group_symop_id
_space_group_symop_operation_xyz
1 'x, x-y, -z+1/2'
2 '-x+y, y, -z+1/2'
3 '-y, -x, -z+1/2'
4 '-x+y, -x, -z+1/2'
5 '-y, x-y, -z+1/2'
6 'x, y, -z+1/2'
7 '-x, -x+y, z+1/2'
8 'x-y, -y, z+1/2'
9 'y, x, z+1/2'
10 'x-y, x, z+1/2'
11 'y, -x+y, z+1/2'
12 '-x, -y, z+1/2'
13 '-x, -x+y, -z'
14 'x-y, -y, -z'
15 'y, x, -z'
16 'x-y, x, -z'
17 'y, -x+y, -z'
18 '-x, -y, -z'
19 'x, x-y, z'
20 '-x+y, y, z'
21 '-y, -x, z'
22 '-x+y, -x, z'
23 '-y, x-y, z'
24 'x, y, z'
loop_
_atom_type_symbol
_atom_type_oxidation_number
La0+ 0
Si0+ 0
loop_
_atom_site_label
_atom_site_type_symbol
_atom_site_symmetry_multiplicity
_atom_site_Wyckoff_symbol
_atom_site_fract_x
_atom_site_fract_y
_atom_site_fract_z
_atom_site_U_iso_or_equiv
_atom_site_occupancy
La1 La0+ 2 c 0.3333 0.6667 0.25 0.043(1) 1.
Si1 Si0+ 2 b 0 0 0.25 0.029(2) 1.
Si2 Si0+ 6 h 0.0457(6) 0.5229(3) -0.25 0.029(1) 1.
Si3 Si0+ 6 h 0.1850(3) 0.3699(6) -0.25 0.032(1) 1.
Si4 Si0+ 6 h 0.1429(4) 0.2859(7) 0.25 0.052(2) 1.
loop_
_atom_site_aniso_label
_atom_site_aniso_type_symbol
_atom_site_aniso_U_11
_atom_site_aniso_U_22
_atom_site_aniso_U_33
_atom_site_aniso_U_12
_atom_site_aniso_U_13
_atom_site_aniso_U_23
La1 La0+ 0.028(1) 0.028(1) 0.072(2) 0.014(1) 0. 0.
Si1 Si0+ 0.026(2) 0.026(2) 0.037(3) 0.013(1) 0. 0.
Si2 Si0+ 0.025(2) 0.028(2) 0.034(2) 0.013(1) 0. 0.
Si3 Si0+ 0.031(2) 0.031(2) 0.034(2) 0.015(1) 0. 0.
Si4 Si0+ 0.078(3) 0.030(2) 0.031(2) 0.015(1) 0. 0.
#End of TTdata_246806-ICSD