
#(C) 2024 by FIZ Karlsruhe - Leibniz Institute for Information Infrastructure.  All rights reserved.
data_198376-ICSD
_database_code_ICSD 198376
_audit_creation_date 2018-08-01
_chemical_name_common 'Copper strontium (5/1)'
_chemical_formula_structural 'Cu5 Sr'
_chemical_formula_sum 'Cu5 Sr1'
_chemical_name_structure_type CaCu5
_exptl_crystal_density_diffrn 6.92
_citation_title

;
Su alcune nuove fasi di formula MX5 dell'Eu e dell'Yb aventi struttura tipo
CaCu5
;
loop_
_citation_id
_citation_journal_full
_citation_year
_citation_journal_volume
_citation_page_first
_citation_page_last
_citation_journal_id_ASTM
primary

;
Atti della Accademia Nazionale dei Lincei, Classe di Scienze Fisiche,
Matematiche e Naturali, Rendiconti
; 1967 42 504 509 AANLAW
loop_
_citation_author_citation_id
_citation_author_name
primary 'Palenzona, Andrea'
_cell_length_a 5.261
_cell_length_b 5.261
_cell_length_c 4.058
_cell_angle_alpha 90.
_cell_angle_beta 90.
_cell_angle_gamma 120.
_cell_volume 97.27
_cell_formula_units_Z 1
_space_group_name_H-M_alt 'P 6/m m m'
_space_group_IT_number 191
loop_
_space_group_symop_id
_space_group_symop_operation_xyz
1 '-x, -x+y, -z'
2 'x-y, -y, -z'
3 'y, x, -z'
4 '-x+y, -x, -z'
5 '-y, x-y, -z'
6 'x, y, -z'
7 'x, x-y, -z'
8 '-x+y, y, -z'
9 '-y, -x, -z'
10 'x-y, x, -z'
11 'y, -x+y, -z'
12 '-x, -y, -z'
13 'x, x-y, z'
14 '-x+y, y, z'
15 '-y, -x, z'
16 'x-y, x, z'
17 'y, -x+y, z'
18 '-x, -y, z'
19 '-x, -x+y, z'
20 'x-y, -y, z'
21 'y, x, z'
22 '-x+y, -x, z'
23 '-y, x-y, z'
24 'x, y, z'
loop_
_atom_type_symbol
_atom_type_oxidation_number
Cu0+ 0
Sr0+ 0
loop_
_atom_site_label
_atom_site_type_symbol
_atom_site_symmetry_multiplicity
_atom_site_Wyckoff_symbol
_atom_site_fract_x
_atom_site_fract_y
_atom_site_fract_z
_atom_site_B_iso_or_equiv
_atom_site_occupancy
Cu1 Cu0+ 2 c 0.3333 0.6667 0 . 1
Cu2 Cu0+ 3 g 0.5 0 0.5 . 1
Sr1 Sr0+ 1 a 0 0 0 . 1
#End of TTdata_198376-ICSD