
#(C) 2023 by FIZ Karlsruhe - Leibniz Institute for Information Infrastructure.  All rights reserved.
data_25595-ICSD
_database_code_ICSD 25595
_audit_creation_date 1980-01-01
_audit_update_record 2000-12-16
_chemical_name_common 'Calcium silicide'
_chemical_formula_structural 'Ca2 Si'
_chemical_formula_sum 'Ca2 Si1'
_chemical_name_structure_type TiNiSi#MgSrSi
_exptl_crystal_density_diffrn 2.17
_citation_title 'Die Kristallstruktur von Ca2 Si und Ca2 Ge'
loop_
_citation_id
_citation_journal_full
_citation_year
_citation_journal_volume
_citation_page_first
_citation_page_last
_citation_journal_id_ASTM
primary 'Zeitschrift fuer Anorganische und Allgemeine Chemie (1950) (DE)' 1955
280 320 331 ZAACAB
loop_
_citation_author_citation_id
_citation_author_name
primary 'Eckerlin, P.'
primary 'Woelfel, E.'
_cell_length_a 9.002(16)
_cell_length_b 7.667(8)
_cell_length_c 4.799(6)
_cell_angle_alpha 90.
_cell_angle_beta 90.
_cell_angle_gamma 90.
_cell_volume 331.22
_cell_formula_units_Z 4
_space_group_name_H-M_alt 'P b n m'
_space_group_IT_number 62
loop_
_space_group_symop_id
_space_group_symop_operation_xyz
1 '-x+1/2, y+1/2, z'
2 'x, y, -z+1/2'
3 'x+1/2, -y+1/2, z+1/2'
4 '-x, -y, -z'
5 'x+1/2, -y+1/2, -z'
6 '-x, -y, z+1/2'
7 '-x+1/2, y+1/2, -z+1/2'
8 'x, y, z'
loop_
_atom_type_symbol
_atom_type_oxidation_number
Ca2+ 2
Si4- -4
loop_
_atom_site_label
_atom_site_type_symbol
_atom_site_symmetry_multiplicity
_atom_site_Wyckoff_symbol
_atom_site_fract_x
_atom_site_fract_y
_atom_site_fract_z
_atom_site_B_iso_or_equiv
_atom_site_occupancy
Ca1 Ca2+ 4 c 0.074 0.655 0.25 1.18 1.
Ca2 Ca2+ 4 c 0.676 0.522 0.25 1.18 1.
Si1 Si4- 4 c 0.107 0.255 0.25 1.18 1.
#End of TTdata_25595-ICSD