
#(C) 2024 by FIZ Karlsruhe - Leibniz Institute for Information Infrastructure.  All rights reserved.
data_260224-ICSD
_database_code_ICSD 260224
_audit_creation_date 2009-08-01
_chemical_name_common 'Silver germanium yttrium sulfide (0.50/1/3/7)'
_chemical_formula_structural 'Ag0.50 Ge Y3 S7'
_chemical_formula_sum 'Ag0.5 Ge1 S7 Y3'
_chemical_name_structure_type La3Mn0.5SiS7
_exptl_crystal_density_diffrn 4.24
_diffrn_ambient_temperature 295.
_citation_title

;
Ln3 M1 - T X7 - quasi - isostructural compounds: stereochemistry and silver -
ion motion in the Ln3 Ag1 - Ge S7 (Ln = La - Nd, Sm, Gd - Er and Y;  = 0.11 -
0.50) compounds
;
loop_
_citation_id
_citation_journal_full
_citation_year
_citation_journal_volume
_citation_page_first
_citation_page_last
_citation_journal_id_ASTM
primary 'Acta Crystallographica, Section B: Structural Science' 2009 65 126 133
ASBSDK
loop_
_citation_author_citation_id
_citation_author_name
primary 'Daszkiewicz, M.'
primary 'Gulay, L.D.'
primary 'Lychmanyuk, O.S.'
_cell_length_a 9.8090(14)
_cell_length_b 9.8090(14)
_cell_length_c 5.8059(12)
_cell_angle_alpha 90.
_cell_angle_beta 90.
_cell_angle_gamma 120.
_cell_volume 483.78
_cell_formula_units_Z 2
_space_group_name_H-M_alt 'P 63'
_space_group_IT_number 173
loop_
_space_group_symop_id
_space_group_symop_operation_xyz
1 'x-y, x, z+1/2'
2 'y, -x+y, z+1/2'
3 '-x, -y, z+1/2'
4 '-x+y, -x, z'
5 '-y, x-y, z'
6 'x, y, z'
loop_
_atom_type_symbol
_atom_type_oxidation_number
Y3+ 3
Ag1+ 1
Ge4+ 4
S2- -2
loop_
_atom_site_label
_atom_site_type_symbol
_atom_site_symmetry_multiplicity
_atom_site_Wyckoff_symbol
_atom_site_fract_x
_atom_site_fract_y
_atom_site_fract_z
_atom_site_U_iso_or_equiv
_atom_site_occupancy
Y1 Y3+ 6 c 0.86329(5) 0.64088(5) 0.24445(13) 0.01737(15) 1
Ag1 Ag1+ 2 a 0. 0. 0.0009(7) 0.0814(10) 0.5
Ge1 Ge4+ 2 b 0.3333 0.6667 0.32329(13) 0.0112(2) 1
S1 S2- 2 b 0.3333 0.6667 0.9465(4) 0.0115(5) 1
S2 S2- 6 c 0.89780(14) 0.73969(16) 0.7021(2) 0.0207(3) 1
S3 S2- 6 c 0.57643(15) 0.47892(15) 0.9833(2) 0.0136(3) 1
loop_
_atom_site_aniso_label
_atom_site_aniso_type_symbol
_atom_site_aniso_U_11
_atom_site_aniso_U_22
_atom_site_aniso_U_33
_atom_site_aniso_U_12
_atom_site_aniso_U_13
_atom_site_aniso_U_23
Y1 Y3+ 0.0132(2) 0.0128(2) 0.0263(3) 0.00662(18) -0.0023(2) -0.0006(2)
Ag1 Ag1+ 0.0172(5) 0.0172(5) 0.210(3) 0.0086(2) 0. 0.
Ge1 Ge4+ 0.0124(3) 0.0124(3) 0.0088(4) 0.00618(15) 0. 0.
S1 S2- 0.0139(7) 0.0139(7) 0.0065(11) 0.0070(3) 0. 0.
S2 S2- 0.0126(6) 0.0267(7) 0.0243(8) 0.0108(5) -0.0017(5) -0.0117(6)
S3 S2- 0.0174(6) 0.0137(6) 0.0123(6) 0.0097(5) -0.0010(6) -0.0003(5)
#End of TTdata_260224-ICSD