
#(C) 2024 by FIZ Karlsruhe - Leibniz Institute for Information Infrastructure.  All rights reserved.
data_245176-ICSD
_database_code_ICSD 245176
_audit_creation_date 2007-08-01
_chemical_name_common 'Gadolinium cobalt silicide (6/1.67/3)'
_chemical_formula_structural 'Gd6 Co1.67 Si3'
_chemical_formula_sum 'Co1.67 Gd6 Si3'
_chemical_name_structure_type Ce2Rh12Si7+x
_exptl_crystal_density_diffrn 7.48
_citation_title

;
Structural, magnetic and electrical properties of the ternary silicide Gd6
Co1.67 Si3 derived from the hexagonal Ho4 Co3.07 (or H06 Co4.61) type
structure
;
loop_
_citation_id
_citation_journal_full
_citation_year
_citation_journal_volume
_citation_page_first
_citation_page_last
_citation_journal_id_ASTM
primary 'Zeitschrift fuer Naturforschung, B: A Journal of Chemical Sciences'
2006 61 825 832 ZNBSEN
loop_
_citation_author_citation_id
_citation_author_name
primary 'Gaudin, E.'
primary 'Weill, F.'
primary 'Chevalier, B.'
_cell_length_a 11.7787(5)
_cell_length_b 11.7787(5)
_cell_length_c 4.1640(2)
_cell_angle_alpha 90.
_cell_angle_beta 90.
_cell_angle_gamma 120.
_cell_volume 500.31
_cell_formula_units_Z 2
_space_group_name_H-M_alt 'P 63/m'
_space_group_IT_number 176
loop_
_space_group_symop_id
_space_group_symop_operation_xyz
1 '-x+y, -x, -z+1/2'
2 '-y, x-y, -z+1/2'
3 'x, y, -z+1/2'
4 'x-y, x, -z'
5 'y, -x+y, -z'
6 '-x, -y, -z'
7 'x-y, x, z+1/2'
8 'y, -x+y, z+1/2'
9 '-x, -y, z+1/2'
10 '-x+y, -x, z'
11 '-y, x-y, z'
12 'x, y, z'
loop_
_atom_type_symbol
_atom_type_oxidation_number
Gd0+ 0
Co0+ 0
Si0+ 0
loop_
_atom_site_label
_atom_site_type_symbol
_atom_site_symmetry_multiplicity
_atom_site_Wyckoff_symbol
_atom_site_fract_x
_atom_site_fract_y
_atom_site_fract_z
_atom_site_B_iso_or_equiv
_atom_site_occupancy
Gd1 Gd0+ 6 h 0.7627(6) -0.0079(10) 0.25 0.34(12) 1.
Gd2 Gd0+ 6 h 0.1399(6) 0.5184(7) 0.25 0.38(11) 1.
Co1 Co0+ 4 e 0 0 0.088(15) 0.5 0.30(5)
Co2 Co0+ 2 a 0 0 0.25 0.5 0.06(9)
Co3 Co0+ 2 d 0.6667 0.3333 0.25 0.5 1.
Si1 Si0+ 6 h 0.439(3) 0.161(3) 0.25 0.5(5) 1.
#End of TTdata_245176-ICSD