
#(C) 2024 by FIZ Karlsruhe - Leibniz Institute for Information Infrastructure.  All rights reserved.
data_259560-ICSD
_database_code_ICSD 259560
_audit_creation_date 2018-08-01
_chemical_name_common 'Iron(II) selenide'
_chemical_formula_structural 'Fe Se'
_chemical_formula_sum 'Fe1 Se1'
_chemical_name_structure_type FeSe(tP2)
_exptl_crystal_density_diffrn 5.4
_citation_title
'Studies of structural transformations and electrical behaviour of FeSe films'
loop_
_citation_id
_citation_journal_full
_citation_year
_citation_journal_volume
_citation_page_first
_citation_page_last
_citation_journal_id_ASTM
primary 'Thin Solid Films' 1975 29 275 284 THSFAP
loop_
_citation_author_citation_id
_citation_author_name
primary 'Shivastava, M.M.'
primary 'Srivastava, O.N.'
_cell_length_a 2.96(3)
_cell_length_b 2.96(3)
_cell_length_c 4.73(5)
_cell_angle_alpha 90.
_cell_angle_beta 90.
_cell_angle_gamma 90.
_cell_volume 41.44
_cell_formula_units_Z 1
_space_group_name_H-M_alt 'P 4/m m m'
_space_group_IT_number 123
loop_
_space_group_symop_id
_space_group_symop_operation_xyz
1 'y, x, -z'
2 '-y, -x, -z'
3 '-y, x, -z'
4 'y, -x, -z'
5 '-x, y, -z'
6 'x, -y, -z'
7 'x, y, -z'
8 '-x, -y, -z'
9 '-y, -x, z'
10 'y, x, z'
11 'y, -x, z'
12 '-y, x, z'
13 'x, -y, z'
14 '-x, y, z'
15 '-x, -y, z'
16 'x, y, z'
loop_
_atom_type_symbol
_atom_type_oxidation_number
Fe2+ 2
Se2- -2
loop_
_atom_site_label
_atom_site_type_symbol
_atom_site_symmetry_multiplicity
_atom_site_Wyckoff_symbol
_atom_site_fract_x
_atom_site_fract_y
_atom_site_fract_z
_atom_site_B_iso_or_equiv
_atom_site_occupancy
Fe1 Fe2+ 1 a 0 0 0 . 1.
Se1 Se2- 1 d 0.5 0.5 0.5 . 1.
#End of TTdata_259560-ICSD