
#(C) 2024 by FIZ Karlsruhe - Leibniz Institute for Information Infrastructure.  All rights reserved.
data_604489-ICSD
_database_code_ICSD 604489
_audit_creation_date 2012-02-01
_audit_update_record 2019-02-01
_chemical_name_common 'Potassium indium molybdenum telluride (0.5/0.5/3/3)'
_chemical_formula_structural '(K0.5 In0.5) Mo3 Te3'
_chemical_formula_sum 'In0.5 K0.5 Mo3 Te3'
_chemical_name_structure_type TlFe3Te3
_exptl_crystal_density_diffrn 6.51
_citation_title

;
A facile synthesis of pseudo one-monodimensional ternary molybdenum
chalcogenides M2Mo6X6 (X = Se, Te; M = Li, Na..Cs)
;
_publ_section_comment 'Cell and Type only determined'
loop_
_citation_id
_citation_journal_full
_citation_year
_citation_journal_volume
_citation_page_first
_citation_page_last
_citation_journal_id_ASTM
primary 'Materials Research Bulletin' 1984 19 915 924 MRBUAC
loop_
_citation_author_citation_id
_citation_author_name
primary 'Tarascon, J.M.'
primary 'Hull, G.W.'
primary 'DiSalvo, F.J.'
_cell_length_a 9.488
_cell_length_b 9.488
_cell_length_c 4.895
_cell_angle_alpha 90.
_cell_angle_beta 90.
_cell_angle_gamma 120.
_cell_volume 381.62
_cell_formula_units_Z 2
_space_group_name_H-M_alt 'P 63/m'
_space_group_IT_number 176
loop_
_space_group_symop_id
_space_group_symop_operation_xyz
1 '-x+y, -x, -z+1/2'
2 '-y, x-y, -z+1/2'
3 'x, y, -z+1/2'
4 'x-y, x, -z'
5 'y, -x+y, -z'
6 '-x, -y, -z'
7 'x-y, x, z+1/2'
8 'y, -x+y, z+1/2'
9 '-x, -y, z+1/2'
10 '-x+y, -x, z'
11 '-y, x-y, z'
12 'x, y, z'
loop_
_atom_type_symbol
_atom_type_oxidation_number
In3+ 3
K1+ 1
Mo1+ 1.33
Te2- -2
loop_
_atom_site_label
_atom_site_type_symbol
_atom_site_symmetry_multiplicity
_atom_site_Wyckoff_symbol
_atom_site_fract_x
_atom_site_fract_y
_atom_site_fract_z
_atom_site_B_iso_or_equiv
_atom_site_occupancy
In1 In3+ 2 c 0.3333 0.6667 0.25 . 0.5
K1 K1+ 2 c 0.3333 0.6667 0.25 . 0.5
Mo1 Mo1+ 6 h 0.18 0.155 0.25 . 1.
Te1 Te2- 6 h 0.065 0.365 0.25 . 1.
#End of TTdata_604489-ICSD