
#(C) 2024 by FIZ Karlsruhe - Leibniz Institute for Information Infrastructure.  All rights reserved.
data_47289-ICSD
_database_code_ICSD 47289
_audit_creation_date 2022-08-01
_chemical_name_common 'Distrontium gadolinium ruthenate(V)'
_chemical_formula_structural 'Sr2 Gd Ru O6'
_chemical_formula_sum 'Gd1 O6 Ru1 Sr2'
_chemical_name_structure_type Double_Perovskite#Ba2LaRuO6(mcl)
_exptl_crystal_density_diffrn 6.33
_citation_title

;
Structural and electronic properties of double perovskite ruthenates;
A$_2$GdRuO$_6$ (where A = Ba, Sr)
;
loop_
_citation_id
_citation_journal_full
_citation_year
_citation_journal_volume
_citation_page_first
_citation_page_last
_citation_journal_id_ASTM
primary 'Journal of Alloys and Compounds' 2022 913 '' '' JALCEU
loop_
_citation_author_citation_id
_citation_author_name
primary 'Dani, Sahil'
primary 'Arya, A.'
primary 'Sharma, Hitesh'
primary 'Kumar, Rakesh'
primary 'Goyal, Navdeep'
primary 'Kumar, Ravi'
primary 'Pandit, Rabia'
_cell_length_a 5.797(5)
_cell_length_b 5.831(2)
_cell_length_c 8.216(9)
_cell_angle_alpha 90.
_cell_angle_beta 90.28
_cell_angle_gamma 90.
_cell_volume 277.72
_cell_formula_units_Z 2
_space_group_name_H-M_alt 'P 1 21/n 1'
_space_group_IT_number 14
loop_
_space_group_symop_id
_space_group_symop_operation_xyz
1 '-x+1/2, y+1/2, -z+1/2'
2 '-x, -y, -z'
3 'x+1/2, -y+1/2, z+1/2'
4 'x, y, z'
loop_
_atom_type_symbol
_atom_type_oxidation_number
Sr2+ 2
Gd3+ 3
Ru5+ 5
O2- -2
loop_
_atom_site_label
_atom_site_type_symbol
_atom_site_symmetry_multiplicity
_atom_site_Wyckoff_symbol
_atom_site_fract_x
_atom_site_fract_y
_atom_site_fract_z
_atom_site_B_iso_or_equiv
_atom_site_occupancy
Sr1 Sr2+ 4 e 0.012(5) 0.044(6) 0.250(2) . 1.
Gd1 Gd3+ 2 d 0.5 0 0 . 1.
Ru1 Ru5+ 2 c 0.5 0 0.5 . 1.
O1 O2- 4 e 0.267(8) 0.308(1) 0.042(7) . 1.
O2 O2- 4 e 0.189(3) -0.231(2) 0.049(5) . 1.
O3 O2- 4 e -0.086(5) 0.470(1) 0.228(6) . 1.
#End of TTdata_47289-ICSD