
#(C) 2024 by FIZ Karlsruhe - Leibniz Institute for Information Infrastructure.  All rights reserved.
data_241866-ICSD
_database_code_ICSD 241866
_audit_creation_date 2017-08-01
_chemical_name_common 'Trilithium rubidium octagermanate - Mn doped'
_chemical_formula_structural 'Li3 Rb Ge8 O18'
_chemical_formula_sum 'Ge8 Li3 O18 Rb1'
_exptl_crystal_density_diffrn 4.49
_diffrn_ambient_temperature 298.
_citation_title

;
Discovery of a red-emitting Li3 Rb Ge8 O18:Mn4+ phosphor in the
alkali-germanate system: structural determination and electronic calculations
;
loop_
_citation_id
_citation_journal_full
_citation_year
_citation_journal_volume
_citation_page_first
_citation_page_last
_citation_journal_id_ASTM
primary 'Inorganic Chemistry' 2016 55 10310 10319 INOCAJ
loop_
_citation_author_citation_id
_citation_author_name
primary 'Singh, Satendra Pal'
primary 'Kim, Minseuk'
primary 'Park, Woon Bae'
primary 'Lee, Jin-Woong'
primary 'Sohn, Kee-Sun'
_cell_length_a 9.44549(3)
_cell_length_b 9.44549(3)
_cell_length_c 4.66191(2)
_cell_angle_alpha 90.
_cell_angle_beta 90.
_cell_angle_gamma 120.
_cell_volume 360.2
_cell_formula_units_Z 1
_space_group_name_H-M_alt 'P -3 1 m'
_space_group_IT_number 162
loop_
_space_group_symop_id
_space_group_symop_operation_xyz
1 '-x+y, y, -z'
2 'x, x-y, -z'
3 '-y, -x, -z'
4 'x-y, x, -z'
5 'y, -x+y, -z'
6 '-x, -y, -z'
7 'x-y, -y, z'
8 '-x, -x+y, z'
9 'y, x, z'
10 '-x+y, -x, z'
11 '-y, x-y, z'
12 'x, y, z'
loop_
_atom_type_symbol
_atom_type_oxidation_number
Rb1+ 1
Ge4+ 4
O2- -2
Li1+ 1
loop_
_atom_site_label
_atom_site_type_symbol
_atom_site_symmetry_multiplicity
_atom_site_Wyckoff_symbol
_atom_site_fract_x
_atom_site_fract_y
_atom_site_fract_z
_atom_site_U_iso_or_equiv
_atom_site_occupancy
Rb1 Rb1+ 1 a 0. 0. 0. 0.0224(4) 0.99996
Ge1 Ge4+ 6 j 0.39696(7) 0.19851(7) 0.5 0.00358(17) 1.
Ge2 Ge4+ 2 c 0.66667 0.33333 0. 0.0026(3) 1.
O1 O2- 12 l 0.5058(3) 0.3317(3) 0.2365(6) 0.0043(7) 1.
O2 O2- 6 k 0.2629(4) 0. 0.3662(8) 0.0141(13) 1.
Li1 Li1+ 3 f 0.5 0. 0. 0.06017 1.
#End of TTdata_241866-ICSD