
#(C) 2024 by FIZ Karlsruhe - Leibniz Institute for Information Infrastructure.  All rights reserved.
data_260220-ICSD
_database_code_ICSD 260220
_audit_creation_date 2009-08-01
_chemical_name_common 'Silver germanium terbium sulfide (0.59/1/3/7)'
_chemical_formula_structural 'Ag0.59 Ge Tb3 S7'
_chemical_formula_sum 'Ag0.59 Ge1 S7 Tb3'
_chemical_name_structure_type La3Mn0.5SiS7
_exptl_crystal_density_diffrn 5.68
_diffrn_ambient_temperature 295.
_citation_title

;
Ln3 M1 - T X7 - quasi - isostructural compounds: stereochemistry and silver -
ion motion in the Ln3 Ag1 - Ge S7 (Ln = La - Nd, Sm, Gd - Er and Y;  = 0.11 -
0.50) compounds
;
loop_
_citation_id
_citation_journal_full
_citation_year
_citation_journal_volume
_citation_page_first
_citation_page_last
_citation_journal_id_ASTM
primary 'Acta Crystallographica, Section B: Structural Science' 2009 65 126 133
ASBSDK
loop_
_citation_author_citation_id
_citation_author_name
primary 'Daszkiewicz, M.'
primary 'Gulay, L.D.'
primary 'Lychmanyuk, O.S.'
_cell_length_a 9.9003(14)
_cell_length_b 9.9003(14)
_cell_length_c 5.7654(12)
_cell_angle_alpha 90.
_cell_angle_beta 90.
_cell_angle_gamma 120.
_cell_volume 489.39
_cell_formula_units_Z 2
_space_group_name_H-M_alt 'P 63'
_space_group_IT_number 173
loop_
_space_group_symop_id
_space_group_symop_operation_xyz
1 'x-y, x, z+1/2'
2 'y, -x+y, z+1/2'
3 '-x, -y, z+1/2'
4 '-x+y, -x, z'
5 '-y, x-y, z'
6 'x, y, z'
loop_
_atom_type_symbol
_atom_type_oxidation_number
Tb3+ 3
Ag1+ 1
Ge4+ 4
S2- -2
loop_
_atom_site_label
_atom_site_type_symbol
_atom_site_symmetry_multiplicity
_atom_site_Wyckoff_symbol
_atom_site_fract_x
_atom_site_fract_y
_atom_site_fract_z
_atom_site_U_iso_or_equiv
_atom_site_occupancy
Tb1 Tb3+ 6 c 0.86677(3) 0.64133(3) 0.25005(13) 0.01415(13) 1
Ag1 Ag1+ 2 a 0. 0. 0.0324(9) 0.0939(17) 0.586(6)
Ge1 Ge4+ 2 b 0.3333 0.6667 0.33058(18) 0.0103(3) 1
S1 S2- 2 b 0.3333 0.6667 0.9534(5) 0.0108(6) 1
S2 S2- 6 c 0.90025(18) 0.7379(2) 0.7165(3) 0.0192(4) 1
S3 S2- 6 c 0.57908(19) 0.47987(18) 0.9894(3) 0.0120(3) 1
loop_
_atom_site_aniso_label
_atom_site_aniso_type_symbol
_atom_site_aniso_U_11
_atom_site_aniso_U_22
_atom_site_aniso_U_33
_atom_site_aniso_U_12
_atom_site_aniso_U_13
_atom_site_aniso_U_23
Tb1 Tb3+ 0.01170(17) 0.01089(16) 0.0201(2) 0.00580(11) -0.00178(17) -0.00055(17)
Ag1 Ag1+ 0.0111(8) 0.0111(8) 0.260(5) 0.0055(4) 0. 0.
Ge1 Ge4+ 0.0112(4) 0.0112(4) 0.0084(6) 0.00560(18) 0. 0.
S1 S2- 0.0140(9) 0.0140(9) 0.0045(15) 0.0070(4) 0. 0.
S2 S2- 0.0128(7) 0.0251(8) 0.0216(10) 0.0109(6) -0.0018(7) -0.0106(8)
S3 S2- 0.0154(8) 0.0123(8) 0.0113(7) 0.0091(7) -0.0004(7) -0.0013(6)
#End of TTdata_260220-ICSD