
#(C) 2024 by FIZ Karlsruhe - Leibniz Institute for Information Infrastructure.  All rights reserved.
data_260218-ICSD
_database_code_ICSD 260218
_audit_creation_date 2009-08-01
_chemical_name_common 'Silver germanium samarium sulfide (0.74/1/3/7)'
_chemical_formula_structural 'Ag0.74 Ge Sm3 S7'
_chemical_formula_sum 'Ag0.74 Ge1 S7 Sm3'
_chemical_name_structure_type La3Mn0.5SiS7
_exptl_crystal_density_diffrn 5.42
_diffrn_ambient_temperature 295.
_citation_title

;
Ln3 M1 - T X7 - quasi - isostructural compounds: stereochemistry and silver -
ion motion in the Ln3 Ag1 - Ge S7 (Ln = La - Nd, Sm, Gd - Er and Y;  = 0.11 -
0.50) compounds
;
loop_
_citation_id
_citation_journal_full
_citation_year
_citation_journal_volume
_citation_page_first
_citation_page_last
_citation_journal_id_ASTM
primary 'Acta Crystallographica, Section B: Structural Science' 2009 65 126 133
ASBSDK
loop_
_citation_author_citation_id
_citation_author_name
primary 'Daszkiewicz, M.'
primary 'Gulay, L.D.'
primary 'Lychmanyuk, O.S.'
_cell_length_a 10.0809(14)
_cell_length_b 10.0809(14)
_cell_length_c 5.7604(12)
_cell_angle_alpha 90.
_cell_angle_beta 90.
_cell_angle_gamma 120.
_cell_volume 506.97
_cell_formula_units_Z 2
_space_group_name_H-M_alt 'P 63'
_space_group_IT_number 173
loop_
_space_group_symop_id
_space_group_symop_operation_xyz
1 'x-y, x, z+1/2'
2 'y, -x+y, z+1/2'
3 '-x, -y, z+1/2'
4 '-x+y, -x, z'
5 '-y, x-y, z'
6 'x, y, z'
loop_
_atom_type_symbol
_atom_type_oxidation_number
Sm3+ 3
Ag1+ 1
Ge4+ 4
S2- -2
loop_
_atom_site_label
_atom_site_type_symbol
_atom_site_symmetry_multiplicity
_atom_site_Wyckoff_symbol
_atom_site_fract_x
_atom_site_fract_y
_atom_site_fract_z
_atom_site_U_iso_or_equiv
_atom_site_occupancy
Sm1 Sm3+ 6 c 0.87145(3) 0.64163(2) 0.24346(12) 0.00914(12) 1
Ag1 Ag1+ 2 a 0. 0. 0.137(3) 0.075(5) 0.548(18)
Ag2 Ag1+ 2 a 0. 0. 0.967(3) 0.020(4) 0.187(18)
Ge1 Ge4+ 2 b 0.3333 0.6667 0.32606(16) 0.0069(2) 1
S1 S2- 2 b 0.3333 0.6667 0.9482(4) 0.0092(5) 1
S2 S2- 6 c 0.90414(13) 0.73662(14) 0.7212(2) 0.0140(3) 1
S3 S2- 6 c 0.58278(15) 0.47996(14) 0.9828(2) 0.0091(3) 1
loop_
_atom_site_aniso_label
_atom_site_aniso_type_symbol
_atom_site_aniso_U_11
_atom_site_aniso_U_22
_atom_site_aniso_U_33
_atom_site_aniso_U_12
_atom_site_aniso_U_13
_atom_site_aniso_U_23
Sm1 Sm3+ 0.00824(15) 0.00721(14) 0.01210(17) 0.00397(10) -0.00139(13)
-0.00070(13)
Ag1 Ag1+ 0.0095(7) 0.0095(7) 0.205(15) 0.0048(4) 0. 0.
Ag2 Ag1+ 0.0091(17) 0.0091(17) 0.043(11) 0.0046(9) 0. 0.
Ge1 Ge4+ 0.0076(3) 0.0076(3) 0.0055(5) 0.00380(14) 0. 0.
S1 S2- 0.0105(7) 0.0105(7) 0.0066(12) 0.0053(3) 0. 0.
S2 S2- 0.0098(5) 0.0202(6) 0.0129(6) 0.0082(5) 0.0005(5) -0.0028(6)
S3 S2- 0.0113(6) 0.0083(6) 0.0093(6) 0.0062(5) 0.0012(5) 0.0006(5)
#End of TTdata_260218-ICSD