
#(C) 2023 by FIZ Karlsruhe - Leibniz Institute for Information Infrastructure.  All rights reserved.
data_416576-ICSD
_database_code_ICSD 416576
_audit_creation_date 2007-04-01
_chemical_name_common 'Europium hexasilicide'
_chemical_formula_structural 'Eu Si6'
_chemical_formula_sum 'Eu1 Si6'
_chemical_name_structure_type EuGa2Ge4
_exptl_crystal_density_diffrn 4.03
_citation_title

;
Breaking the Zintl rule: high-pressure synthesis of binary Eu Si6 and its
ternary derivative Eu Si(6-x) Ga(x) (0 =< x =< 0.6)
;
loop_
_citation_id
_citation_journal_full
_citation_year
_citation_journal_volume
_citation_page_first
_citation_page_last
_citation_journal_id_ASTM
primary 'Solid State Sciences' 2006 8 773 781 SSSCFJ
loop_
_citation_author_citation_id
_citation_author_name
primary 'Wosylus, A.'
primary "Prots', Yu. (Prots, Yu.)"
primary 'Burkhardt, U.'
primary 'Schnelle, W.'
primary 'Schwarz, U.'
primary "Grin', Yu. (Hrin', Yu."
primary ' Grin, Yu.'
primary ' Hrin, Yu.)'
_cell_length_a 4.4489(3)
_cell_length_b 10.2229(7)
_cell_length_c 11.6160(5)
_cell_angle_alpha 90.
_cell_angle_beta 90.
_cell_angle_gamma 90.
_cell_volume 528.3
_cell_formula_units_Z 4
_space_group_name_H-M_alt 'C m c m'
_space_group_IT_number 63
loop_
_space_group_symop_id
_space_group_symop_operation_xyz
1 '-x, y, -z+1/2'
2 '-x, -y, z+1/2'
3 '-x, y, z'
4 '-x, -y, -z'
5 'x, -y, z+1/2'
6 'x, y, -z+1/2'
7 'x, -y, -z'
8 'x, y, z'
9 '-x+1/2, y+1/2, -z+1/2'
10 '-x+1/2, -y+1/2, z+1/2'
11 '-x+1/2, y+1/2, z'
12 '-x+1/2, -y+1/2, -z'
13 'x+1/2, -y+1/2, z+1/2'
14 'x+1/2, y+1/2, -z+1/2'
15 'x+1/2, -y+1/2, -z'
16 'x+1/2, y+1/2, z'
loop_
_atom_type_symbol
_atom_type_oxidation_number
Eu0+ 0
Si0+ 0
loop_
_atom_site_label
_atom_site_type_symbol
_atom_site_symmetry_multiplicity
_atom_site_Wyckoff_symbol
_atom_site_fract_x
_atom_site_fract_y
_atom_site_fract_z
_atom_site_U_iso_or_equiv
_atom_site_occupancy
Eu1 Eu0+ 4 c 0. 0.27399(2) 0.25 0.01264(11) 1
Si1 Si0+ 8 f 0. 0.24719(6) 0.53832(7) 0.00904(19) 1
Si2 Si0+ 8 f 0. 0.55775(7) 0.35236(7) 0.00869(19) 1
Si3 Si0+ 8 f 0. 0.02347(7) 0.60164(7) 0.01028(18) 1
loop_
_atom_site_aniso_label
_atom_site_aniso_type_symbol
_atom_site_aniso_U_11
_atom_site_aniso_U_22
_atom_site_aniso_U_33
_atom_site_aniso_U_12
_atom_site_aniso_U_13
_atom_site_aniso_U_23
Eu1 Eu0+ 0.01717(16) 0.01089(12) 0.00986(14) 0. 0. 0.
Si1 Si0+ 0.0096(5) 0.0086(4) 0.0090(4) 0. 0. -0.0008(3)
Si2 Si0+ 0.0097(5) 0.0080(3) 0.0083(4) 0. 0. -0.0007(3)
Si3 Si0+ 0.0082(5) 0.0105(3) 0.0122(4) 0. 0. 0.0017(3)
#End of TTdata_416576-ICSD