
#(C) 2025 by FIZ Karlsruhe - Leibniz Institute for Information Infrastructure.  All rights reserved.
data_261319-ICSD
_database_code_ICSD 261319
_audit_creation_date 2011-08-01
_audit_update_record 2013-02-01
_chemical_name_common 'Gold barium germanium (5.3/8/40.7)'
_chemical_formula_structural 'Au5.3 Ba8 Ge40.7'
_chemical_formula_sum 'Au5.3 Ba8 Ge40.7'
_chemical_name_structure_type K8Si46
_exptl_crystal_density_diffrn 6.72
_citation_title 'Atomic interactions in the p-type clathrate I Ba8 Au5.3 Ge40.7'
loop_
_citation_id
_citation_journal_full
_citation_year
_citation_journal_volume
_citation_page_first
_citation_page_last
_citation_journal_id_ASTM
primary 'Inorganic Chemistry' 2011 50 1250 1257 INOCAJ
loop_
_citation_author_citation_id
_citation_author_name
primary 'Zhang Hui'
primary 'Borrmann, H.'
primary 'Oeschler, N.'
primary 'Candolfi, C.'
primary 'Schnelle, W.'
primary 'Schmidt, M.'
primary 'Burkhardt, U.'
primary 'Baitinger, M.'
primary 'Zhao Jingtai'
primary "Grin', Yu. (Hrin', Yu."
primary ' Grin, Yu.'
primary ' Hrin, Yu.)'
_cell_length_a 10.79891(8)
_cell_length_b 10.79891(8)
_cell_length_c 10.79891(8)
_cell_angle_alpha 90.
_cell_angle_beta 90.
_cell_angle_gamma 90.
_cell_volume 1259.33
_cell_formula_units_Z 1
_space_group_name_H-M_alt 'P m -3 n'
_space_group_IT_number 223
loop_
_space_group_symop_id
_space_group_symop_operation_xyz
1 'z+1/2, -y+1/2, x+1/2'
2 'y+1/2, -x+1/2, z+1/2'
3 'x+1/2, -z+1/2, y+1/2'
4 '-z+1/2, y+1/2, -x+1/2'
5 '-y+1/2, x+1/2, -z+1/2'
6 '-x+1/2, z+1/2, -y+1/2'
7 'z+1/2, y+1/2, -x+1/2'
8 'y+1/2, x+1/2, -z+1/2'
9 'x+1/2, z+1/2, -y+1/2'
10 '-z+1/2, -y+1/2, x+1/2'
11 '-y+1/2, -x+1/2, z+1/2'
12 '-x+1/2, -z+1/2, y+1/2'
13 '-z+1/2, y+1/2, x+1/2'
14 '-y+1/2, x+1/2, z+1/2'
15 '-x+1/2, z+1/2, y+1/2'
16 'z+1/2, -y+1/2, -x+1/2'
17 'y+1/2, -x+1/2, -z+1/2'
18 'x+1/2, -z+1/2, -y+1/2'
19 '-z+1/2, -y+1/2, -x+1/2'
20 '-y+1/2, -x+1/2, -z+1/2'
21 '-x+1/2, -z+1/2, -y+1/2'
22 'z+1/2, y+1/2, x+1/2'
23 'y+1/2, x+1/2, z+1/2'
24 'x+1/2, z+1/2, y+1/2'
25 'z, x, -y'
26 'y, z, -x'
27 'x, y, -z'
28 '-z, -x, y'
29 '-y, -z, x'
30 '-x, -y, z'
31 'z, -x, y'
32 'y, -z, x'
33 'x, -y, z'
34 '-z, x, -y'
35 '-y, z, -x'
36 '-x, y, -z'
37 '-z, x, y'
38 '-y, z, x'
39 '-x, y, z'
40 'z, -x, -y'
41 'y, -z, -x'
42 'x, -y, -z'
43 '-z, -x, -y'
44 '-y, -z, -x'
45 '-x, -y, -z'
46 'z, x, y'
47 'y, z, x'
48 'x, y, z'
loop_
_atom_type_symbol
_atom_type_oxidation_number
Ba0+ 0
Au0+ 0
Ge0+ 0
loop_
_atom_site_label
_atom_site_type_symbol
_atom_site_symmetry_multiplicity
_atom_site_Wyckoff_symbol
_atom_site_fract_x
_atom_site_fract_y
_atom_site_fract_z
_atom_site_B_iso_or_equiv
_atom_site_occupancy
Ba1 Ba0+ 2 a 0 0 0 0.706(2) 1.
Ba2 Ba0+ 24 k 0.2432(6) 0.5140(5) 0 2.01(5) 0.25
Au1 Au0+ 6 c 0.25 0 0.5 0.845(2) 0.883(2)
Ge1 Ge0+ 6 c 0.25 0 0.5 0.845(2) 0.117
Ge2 Ge0+ 16 i 0.18328(1) 0.18328(1) 0.18328(1) 0.660(2) 1.
Ge3 Ge0+ 24 k 0 0.30871(2) 0.11792(2) 0.709(3) 1.
loop_
_atom_site_aniso_label
_atom_site_aniso_type_symbol
_atom_site_aniso_B_11
_atom_site_aniso_B_22
_atom_site_aniso_B_33
_atom_site_aniso_B_12
_atom_site_aniso_B_13
_atom_site_aniso_B_23
Ba1 Ba0+ 0.706(4) 0.706(4) 0.706(4) 0. 0. 0.
Ba2 Ba0+ 1.44(9) 2.52(9) 2.06(6) -0.13(5) 0. 0.
Au1 Au0+ 1.212(5) 0.662(3) 0.662(3) 0. 0. 0.
Ge1 Ge0+ 1.212(5) 0.662(3) 0.662(3) 0. 0. 0.
Ge2 Ge0+ 0.660(3) 0.660(3) 0.660(3) -0.072(3) 0. 0.
Ge3 Ge0+ 0.758(5) 0.671(5) 0.698(5) 0. 0. -0.011(4)
#End of TTdata_261319-ICSD