
#(C) 2025 by FIZ Karlsruhe - Leibniz Institute for Information Infrastructure.  All rights reserved.
data_52613-ICSD
_database_code_ICSD 52613
_audit_creation_date 2003-04-01
_audit_update_record 2019-08-01
_chemical_name_common 'Aluminum barium germanide (8.2/4/14.8)'
_chemical_formula_structural 'Al8.2 Ba4 Ge14.8'
_chemical_formula_sum 'Al8.2 Ba4 Ge14.8'
_chemical_name_structure_type K8Si46
_exptl_crystal_density_diffrn 4.82
_citation_title

;
Die Verbindungen AII8BIII16BIV30 (AII ident to Sr, Ba; BIII ident to Al, Ga;
BIV ident to Si, Ge, Sn) und ihre Kaefigstrukturen
;
loop_
_citation_id
_citation_journal_full
_citation_year
_citation_journal_volume
_citation_page_first
_citation_page_last
_citation_journal_id_ASTM
primary 'Journal of the Less-Common Metals' 1986 118 43 55 JCOMAH
loop_
_citation_author_citation_id
_citation_author_name
primary 'Eisenmann, Brigitte'
primary 'Schaefer, Herbert'
primary 'Zagler, Roland'
_cell_length_a 10.8350(14)
_cell_length_b 10.835
_cell_length_c 10.835
_cell_angle_alpha 90.
_cell_angle_beta 90.
_cell_angle_gamma 90.
_cell_volume 1272.
_cell_formula_units_Z 2
_space_group_name_H-M_alt 'P m -3 n'
_space_group_IT_number 223
loop_
_space_group_symop_id
_space_group_symop_operation_xyz
1 'z+1/2, -y+1/2, x+1/2'
2 'y+1/2, -x+1/2, z+1/2'
3 'x+1/2, -z+1/2, y+1/2'
4 '-z+1/2, y+1/2, -x+1/2'
5 '-y+1/2, x+1/2, -z+1/2'
6 '-x+1/2, z+1/2, -y+1/2'
7 'z+1/2, y+1/2, -x+1/2'
8 'y+1/2, x+1/2, -z+1/2'
9 'x+1/2, z+1/2, -y+1/2'
10 '-z+1/2, -y+1/2, x+1/2'
11 '-y+1/2, -x+1/2, z+1/2'
12 '-x+1/2, -z+1/2, y+1/2'
13 '-z+1/2, y+1/2, x+1/2'
14 '-y+1/2, x+1/2, z+1/2'
15 '-x+1/2, z+1/2, y+1/2'
16 'z+1/2, -y+1/2, -x+1/2'
17 'y+1/2, -x+1/2, -z+1/2'
18 'x+1/2, -z+1/2, -y+1/2'
19 '-z+1/2, -y+1/2, -x+1/2'
20 '-y+1/2, -x+1/2, -z+1/2'
21 '-x+1/2, -z+1/2, -y+1/2'
22 'z+1/2, y+1/2, x+1/2'
23 'y+1/2, x+1/2, z+1/2'
24 'x+1/2, z+1/2, y+1/2'
25 'z, x, -y'
26 'y, z, -x'
27 'x, y, -z'
28 '-z, -x, y'
29 '-y, -z, x'
30 '-x, -y, z'
31 'z, -x, y'
32 'y, -z, x'
33 'x, -y, z'
34 '-z, x, -y'
35 '-y, z, -x'
36 '-x, y, -z'
37 '-z, x, y'
38 '-y, z, x'
39 '-x, y, z'
40 'z, -x, -y'
41 'y, -z, -x'
42 'x, -y, -z'
43 '-z, -x, -y'
44 '-y, -z, -x'
45 '-x, -y, -z'
46 'z, x, y'
47 'y, z, x'
48 'x, y, z'
loop_
_atom_type_symbol
_atom_type_oxidation_number
Al0+ 0
Ge0+ 0
Al0+ 0
Ge0+ 0
Ba0+ 0
loop_
_atom_site_label
_atom_site_type_symbol
_atom_site_symmetry_multiplicity
_atom_site_Wyckoff_symbol
_atom_site_fract_x
_atom_site_fract_y
_atom_site_fract_z
_atom_site_U_iso_or_equiv
_atom_site_occupancy
Al1 Al0+ 6 c 0.25 0 0.5 . 1.
Al2 Al0+ 16 i 0.1844(1) 0.1844 0.1844 . 0.6
Ge1 Ge0+ 16 i 0.1844(1) 0.1844 0.1844 . 0.4
Al3 Al0+ 24 k 0 0.3079(1) 0.1168(1) . 0.035
Ge2 Ge0+ 24 k 0 0.3079(1) 0.1168(1) . 0.965
Ba1 Ba0+ 2 a 0 0 0 0.0099(6) 1.
Ba2 Ba0+ 6 d 0.25 0.5 0 . 1.
loop_
_atom_site_aniso_label
_atom_site_aniso_type_symbol
_atom_site_aniso_U_11
_atom_site_aniso_U_22
_atom_site_aniso_U_33
_atom_site_aniso_U_12
_atom_site_aniso_U_13
_atom_site_aniso_U_23
Al1 Al0+ 0.0067(36) 0.0121(24) 0.0121 0 0 0
Al2 Al0+ 0.0085(7) 0.0085 0.0085 -0.0006(6) -0.0006 -0.0006
Ge1 Ge0+ 0.0085(7) 0.0085 0.0085 -0.0006(6) -0.0006 -0.0006
Al3 Al0+ 0.0111(7) 0.0088(7) 0.0093(7) 0 0 -0.0012(5)
Ge2 Ge0+ 0.0111(7) 0.0088(7) 0.0093(7) 0 0 -0.0012(5)
Ba2 Ba0+ 0.0145(10) 0.0345(9) 0.0345 0 0 0
#End of TTdata_52613-ICSD