
#(C) 2025 by FIZ Karlsruhe - Leibniz Institute for Information Infrastructure.  All rights reserved.
data_166918-ICSD
_database_code_ICSD 166918
_audit_creation_date 2010-08-01
_audit_update_record 2015-02-01
_chemical_name_common 'Barium nickel germanium (8/3.5/42.1)'
_chemical_formula_structural 'Ba8 Ni3.5 Ge42.1'
_chemical_formula_sum 'Ba8 Ge42.1 Ni3.5'
_chemical_name_structure_type K8Si46
_exptl_crystal_density_diffrn 5.94
_diffrn_ambient_temperature 295.
_citation_title

;
Atomic ordering and thermoelectric properties of n-type clathrate Ba8 Ni3.5
Ge42.1 (vac)0.4
;
loop_
_citation_id
_citation_journal_full
_citation_year
_citation_journal_volume
_citation_page_first
_citation_page_last
_citation_journal_id_ASTM
primary 'Dalton Transactions' 2010 39 1071 1077 DTARAF
loop_
_citation_author_citation_id
_citation_author_name
primary 'Nguyen, L.T.K.'
primary 'Aydemir, U.'
primary 'Baitinger, M.'
primary 'Bauer, E.'
primary 'Borrmann, H.'
primary 'Burkhardt, U.'
primary 'Custers, J.'
primary 'Haghighirad, A.'
primary 'Hoefler, R.'
primary 'Luther, K.D.'
primary 'Ritter, F.'
primary 'Assmus, W.'
primary "Grin', Yu. (Hrin', Yu."
primary ' Grin, Yu.'
primary ' Hrin, Yu.)'
primary 'Paschen, S.'
_cell_length_a 10.6798(2)
_cell_length_b 10.6798(2)
_cell_length_c 10.6798(2)
_cell_angle_alpha 90.
_cell_angle_beta 90.
_cell_angle_gamma 90.
_cell_volume 1218.12
_cell_formula_units_Z 1
_space_group_name_H-M_alt 'P m -3 n'
_space_group_IT_number 223
loop_
_space_group_symop_id
_space_group_symop_operation_xyz
1 'z+1/2, -y+1/2, x+1/2'
2 'y+1/2, -x+1/2, z+1/2'
3 'x+1/2, -z+1/2, y+1/2'
4 '-z+1/2, y+1/2, -x+1/2'
5 '-y+1/2, x+1/2, -z+1/2'
6 '-x+1/2, z+1/2, -y+1/2'
7 'z+1/2, y+1/2, -x+1/2'
8 'y+1/2, x+1/2, -z+1/2'
9 'x+1/2, z+1/2, -y+1/2'
10 '-z+1/2, -y+1/2, x+1/2'
11 '-y+1/2, -x+1/2, z+1/2'
12 '-x+1/2, -z+1/2, y+1/2'
13 '-z+1/2, y+1/2, x+1/2'
14 '-y+1/2, x+1/2, z+1/2'
15 '-x+1/2, z+1/2, y+1/2'
16 'z+1/2, -y+1/2, -x+1/2'
17 'y+1/2, -x+1/2, -z+1/2'
18 'x+1/2, -z+1/2, -y+1/2'
19 '-z+1/2, -y+1/2, -x+1/2'
20 '-y+1/2, -x+1/2, -z+1/2'
21 '-x+1/2, -z+1/2, -y+1/2'
22 'z+1/2, y+1/2, x+1/2'
23 'y+1/2, x+1/2, z+1/2'
24 'x+1/2, z+1/2, y+1/2'
25 'z, x, -y'
26 'y, z, -x'
27 'x, y, -z'
28 '-z, -x, y'
29 '-y, -z, x'
30 '-x, -y, z'
31 'z, -x, y'
32 'y, -z, x'
33 'x, -y, z'
34 '-z, x, -y'
35 '-y, z, -x'
36 '-x, y, -z'
37 '-z, x, y'
38 '-y, z, x'
39 '-x, y, z'
40 'z, -x, -y'
41 'y, -z, -x'
42 'x, -y, -z'
43 '-z, -x, -y'
44 '-y, -z, -x'
45 '-x, -y, -z'
46 'z, x, y'
47 'y, z, x'
48 'x, y, z'
loop_
_atom_type_symbol
_atom_type_oxidation_number
Ba0+ 0
Ni0+ 0
Ge0+ 0
loop_
_atom_site_label
_atom_site_type_symbol
_atom_site_symmetry_multiplicity
_atom_site_Wyckoff_symbol
_atom_site_fract_x
_atom_site_fract_y
_atom_site_fract_z
_atom_site_U_iso_or_equiv
_atom_site_occupancy
Ba1 Ba0+ 2 a 0 0 0 0.01132(6) 1.
Ba2 Ba0+ 24 k 0.2409(3) 0.5155(3) 0 0.0271(8) 0.25
Ni1 Ni0+ 6 c 0.5 0.25 0 0.0104(2) 0.583
Ge1 Ge0+ 6 c 0.5 0.25 0 0.0104(2) 0.346(6)
Ge2 Ge0+ 16 i 0.18363(3) 0.18363(3) 0.18363(3) 0.00998(4) 1.
Ge3 Ge0+ 24 k 0 0.30757(1) 0.10980(1) 0.0084(2) 0.317(3)
Ge4 Ge0+ 24 k 0 0.32013(1) 0.12612(1) 0.0120(2) 0.583
Ge5 Ge0+ 24 k 0 0.3282(13) 0.1415(10) 0.0139(14) 0.096(2)
loop_
_atom_site_aniso_label
_atom_site_aniso_type_symbol
_atom_site_aniso_U_11
_atom_site_aniso_U_22
_atom_site_aniso_U_33
_atom_site_aniso_U_12
_atom_site_aniso_U_13
_atom_site_aniso_U_23
Ba1 Ba0+ 0.01132(1) 0.01132(1) 0.01132(1) 0 0 0
Ba2 Ba0+ 0.0097(10) 0.0255(13) 0.046(2) 0.0040(6) 0 0
Ni1 Ni0+ 0.0088(2) 0.0137(4) 0.0088(2) 0 0 0
Ge1 Ge0+ 0.0088(2) 0.0137(4) 0.0088(2) 0 0 0
Ge2 Ge0+ 0.00998(7) 0.00998(7) 0.00998(7) -0.00138(6) -0.00138(6) -0.00138(6)
Ge3 Ge0+ 0.0102(4) 0.0059(3) 0.0092(4) 0 0 -0.0009(3)
Ge4 Ge0+ 0.0100(2) 0.0120(3) 0.0139(5) 0 0 0.0008(3)
Ge5 Ge0+ 0.014(2) 0.019(3) 0.009(2) 0 0 -0.005(2)
#End of TTdata_166918-ICSD