
#(C) 2025 by FIZ Karlsruhe - Leibniz Institute for Information Infrastructure.  All rights reserved.
data_165803-ICSD
_database_code_ICSD 165803
_audit_creation_date 2010-08-01
_chemical_name_common
'Strontium aluminium gallium silicon (8/6.14/9.18/30.68) - clathrate type I'
_chemical_formula_structural 'Sr8 (Al6.142 Ga9.18 Si30.678)'
_chemical_formula_sum 'Al6.142 Ga9.18 Si30.678 Sr8'
_chemical_name_structure_type K8Si46
_exptl_crystal_density_diffrn 3.42
_citation_title

;
Raman spectroscopy of type-I and type-VIII silicon clathrate alloys Sr8 Alx
Ga16-x Si30
;
loop_
_citation_id
_citation_journal_full
_citation_year
_citation_journal_volume
_citation_page_first
_citation_page_last
_citation_journal_id_ASTM
primary 'Journal of Alloys and Compounds' 2009 487 47 51 JALCEU
loop_
_citation_author_citation_id
_citation_author_name
primary 'Shimizu, H.'
primary 'Takeuchi, Y.'
primary 'Kume, T.'
primary 'Sasaki, S.'
primary 'Kishimoto, K.'
primary 'Ikeda, N.'
primary 'Koyanagi, T.'
_cell_length_a 10.4806(2)
_cell_length_b 10.4806(2)
_cell_length_c 10.4806(2)
_cell_angle_alpha 90.
_cell_angle_beta 90.
_cell_angle_gamma 90.
_cell_volume 1151.22
_cell_formula_units_Z 1
_space_group_name_H-M_alt 'P m -3 n'
_space_group_IT_number 223
loop_
_space_group_symop_id
_space_group_symop_operation_xyz
1 'z+1/2, -y+1/2, x+1/2'
2 'y+1/2, -x+1/2, z+1/2'
3 'x+1/2, -z+1/2, y+1/2'
4 '-z+1/2, y+1/2, -x+1/2'
5 '-y+1/2, x+1/2, -z+1/2'
6 '-x+1/2, z+1/2, -y+1/2'
7 'z+1/2, y+1/2, -x+1/2'
8 'y+1/2, x+1/2, -z+1/2'
9 'x+1/2, z+1/2, -y+1/2'
10 '-z+1/2, -y+1/2, x+1/2'
11 '-y+1/2, -x+1/2, z+1/2'
12 '-x+1/2, -z+1/2, y+1/2'
13 '-z+1/2, y+1/2, x+1/2'
14 '-y+1/2, x+1/2, z+1/2'
15 '-x+1/2, z+1/2, y+1/2'
16 'z+1/2, -y+1/2, -x+1/2'
17 'y+1/2, -x+1/2, -z+1/2'
18 'x+1/2, -z+1/2, -y+1/2'
19 '-z+1/2, -y+1/2, -x+1/2'
20 '-y+1/2, -x+1/2, -z+1/2'
21 '-x+1/2, -z+1/2, -y+1/2'
22 'z+1/2, y+1/2, x+1/2'
23 'y+1/2, x+1/2, z+1/2'
24 'x+1/2, z+1/2, y+1/2'
25 'z, x, -y'
26 'y, z, -x'
27 'x, y, -z'
28 '-z, -x, y'
29 '-y, -z, x'
30 '-x, -y, z'
31 'z, -x, y'
32 'y, -z, x'
33 'x, -y, z'
34 '-z, x, -y'
35 '-y, z, -x'
36 '-x, y, -z'
37 '-z, x, y'
38 '-y, z, x'
39 '-x, y, z'
40 'z, -x, -y'
41 'y, -z, -x'
42 'x, -y, -z'
43 '-z, -x, -y'
44 '-y, -z, -x'
45 '-x, -y, -z'
46 'z, x, y'
47 'y, z, x'
48 'x, y, z'
loop_
_atom_type_symbol
_atom_type_oxidation_number
Sr0+ 0
Ga0+ 0
Al0+ 0
Si0+ 0
Ga0+ 0
Al0+ 0
Si0+ 0
Ga0+ 0
Al0+ 0
Si0+ 0
loop_
_atom_site_label
_atom_site_type_symbol
_atom_site_symmetry_multiplicity
_atom_site_Wyckoff_symbol
_atom_site_fract_x
_atom_site_fract_y
_atom_site_fract_z
_atom_site_U_iso_or_equiv
_atom_site_occupancy
Sr1 Sr0+ 2 a 0 0 0 0.015(1) 1.
Sr2 Sr0+ 6 d 0.25 0.5 0 . 1.
Ga1 Ga0+ 6 c 0.25 0 0.5 0.018(1) 0.37(1)
Al1 Al0+ 6 c 0.25 0 0.5 0.018(1) 0.105(2)
Si1 Si0+ 6 c 0.25 0 0.5 0.018(1) 0.525(9)
Ga2 Ga0+ 16 i 0.1847(1) 0.1847(1) 0.1847(1) 0.017(1) 0.15(1)
Al2 Al0+ 16 i 0.1847(1) 0.1847(1) 0.1847(1) 0.017(1) 0.142(2)
Si2 Si0+ 16 i 0.1847(1) 0.1847(1) 0.1847(1) 0.017(1) 0.708(9)
Ga3 Ga0+ 24 k 0 0.3058(2) 0.1168(2) 0.018(1) 0.19(1)
Al3 Al0+ 24 k 0 0.3058(2) 0.1168(2) 0.018(1) 0.135(2)
Si3 Si0+ 24 k 0 0.3058(2) 0.1168(2) 0.018(1) 0.675(9)
loop_
_atom_site_aniso_label
_atom_site_aniso_type_symbol
_atom_site_aniso_U_11
_atom_site_aniso_U_22
_atom_site_aniso_U_33
_atom_site_aniso_U_12
_atom_site_aniso_U_13
_atom_site_aniso_U_23
Sr2 Sr0+ 0.026(2) 0.056(1) 0.056(1) 0. 0. 0.
#End of TTdata_165803-ICSD