
#(C) 2025 by FIZ Karlsruhe - Leibniz Institute for Information Infrastructure.  All rights reserved.
data_262554-ICSD
_database_code_ICSD 262554
_audit_creation_date 2012-08-01
_chemical_name_common 'Barium aluminium silicide (7.96/9.98/35.95)'
_chemical_formula_structural 'Ba7.96 Al9.98 Si35.95'
_chemical_formula_sum 'Al9.98 Ba7.96 Si35.95'
_chemical_name_structure_type K8Si46
_exptl_crystal_density_diffrn 3.39
_diffrn_ambient_temperature 90.
_citation_title

;
Phase range of the type-I clathrate Sr8 Al(x) Si(46-x) and crystal structure
of Sr8 Al10 Si36
;
loop_
_citation_id
_citation_journal_full
_citation_year
_citation_journal_volume
_citation_page_first
_citation_page_last
_citation_journal_id_ASTM
primary 'Inorganic Chemistry' 2012 51 4161 4169 INOCAJ
loop_
_citation_author_citation_id
_citation_author_name
primary 'Roudebush, J.H.'
primary 'Tsujii, N.'
primary 'Hurtando, A.'
primary 'Hope, H.'
primary "Grin', Yu. (Hrin', Yu."
primary ' Grin, Yu.'
primary ' Hrin, Yu.)'
primary 'Kauzlarich, S.M.'
_cell_length_a 10.51480(10)
_cell_length_b 10.51480(10)
_cell_length_c 10.51480(10)
_cell_angle_alpha 90.
_cell_angle_beta 90.
_cell_angle_gamma 90.
_cell_volume 1162.53
_cell_formula_units_Z 1
_space_group_name_H-M_alt 'P m -3 n'
_space_group_IT_number 223
loop_
_space_group_symop_id
_space_group_symop_operation_xyz
1 'z+1/2, -y+1/2, x+1/2'
2 'y+1/2, -x+1/2, z+1/2'
3 'x+1/2, -z+1/2, y+1/2'
4 '-z+1/2, y+1/2, -x+1/2'
5 '-y+1/2, x+1/2, -z+1/2'
6 '-x+1/2, z+1/2, -y+1/2'
7 'z+1/2, y+1/2, -x+1/2'
8 'y+1/2, x+1/2, -z+1/2'
9 'x+1/2, z+1/2, -y+1/2'
10 '-z+1/2, -y+1/2, x+1/2'
11 '-y+1/2, -x+1/2, z+1/2'
12 '-x+1/2, -z+1/2, y+1/2'
13 '-z+1/2, y+1/2, x+1/2'
14 '-y+1/2, x+1/2, z+1/2'
15 '-x+1/2, z+1/2, y+1/2'
16 'z+1/2, -y+1/2, -x+1/2'
17 'y+1/2, -x+1/2, -z+1/2'
18 'x+1/2, -z+1/2, -y+1/2'
19 '-z+1/2, -y+1/2, -x+1/2'
20 '-y+1/2, -x+1/2, -z+1/2'
21 '-x+1/2, -z+1/2, -y+1/2'
22 'z+1/2, y+1/2, x+1/2'
23 'y+1/2, x+1/2, z+1/2'
24 'x+1/2, z+1/2, y+1/2'
25 'z, x, -y'
26 'y, z, -x'
27 'x, y, -z'
28 '-z, -x, y'
29 '-y, -z, x'
30 '-x, -y, z'
31 'z, -x, y'
32 'y, -z, x'
33 'x, -y, z'
34 '-z, x, -y'
35 '-y, z, -x'
36 '-x, y, -z'
37 '-z, x, y'
38 '-y, z, x'
39 '-x, y, z'
40 'z, -x, -y'
41 'y, -z, -x'
42 'x, -y, -z'
43 '-z, -x, -y'
44 '-y, -z, -x'
45 '-x, -y, -z'
46 'z, x, y'
47 'y, z, x'
48 'x, y, z'
loop_
_atom_type_symbol
_atom_type_oxidation_number
Ba0+ 0
Si0+ 0
Al0+ 0
Si0+ 0
Al0+ 0
loop_
_atom_site_label
_atom_site_type_symbol
_atom_site_symmetry_multiplicity
_atom_site_Wyckoff_symbol
_atom_site_fract_x
_atom_site_fract_y
_atom_site_fract_z
_atom_site_U_iso_or_equiv
_atom_site_occupancy
Ba1 Ba0+ 2 a 0. 0. 0. 0.00420(1) 0.9868(7)
Ba2 Ba0+ 6 d 0.25 0.5 0. 0.00875(1) 0.9982(6)
Si1 Si0+ 24 k 0. 0.303638(9) 0.116016(9) 0.00583(2) 0.941(5)
Al1 Al0+ 24 k 0. 0.303638(9) 0.116016(9) 0.00583(2) 0.059(5)
Si2 Si0+ 16 i 0.184739(6) 0.184739(6) 0.184739(6) 0.00570(3) 0.836(8)
Al2 Al0+ 16 i 0.184739(6) 0.184739(6) 0.184739(6) 0.00570(3) 0.164(8)
Al3 Al0+ 6 c 0.25 0. 0.5 0.00487(5) 0.9889(17)
loop_
_atom_site_aniso_label
_atom_site_aniso_type_symbol
_atom_site_aniso_U_11
_atom_site_aniso_U_22
_atom_site_aniso_U_33
_atom_site_aniso_U_12
_atom_site_aniso_U_13
_atom_site_aniso_U_23
Ba2 Ba0+ 0.00569(1) 0.01028(1) 0.01028(1) 0. 0. 0.
Si1 Si0+ 0.00651(4) 0.00497(4) 0.00601(4) 0. 0. -0.00061(2)
Al1 Al0+ 0.00651(4) 0.00497(4) 0.00601(4) 0. 0. -0.00061(2)
Al3 Al0+ 0.00484(8) 0.00489(6) 0.00489(6) 0. 0. 0.
#End of TTdata_262554-ICSD