
#(C) 2025 by FIZ Karlsruhe - Leibniz Institute for Information Infrastructure.  All rights reserved.
data_424860-ICSD
_database_code_ICSD 424860
_audit_creation_date 2015-08-01
_chemical_name_common 'Potassium zinc arsenide (7.22/18.2/27.8)'
_chemical_formula_structural 'K7.22 Zn18.20 As27.80'
_chemical_formula_sum 'As27.8 K7.22 Zn18.2'
_chemical_name_structure_type K8Si46
_exptl_crystal_density_diffrn 4.8
_diffrn_ambient_temperature 200.
_citation_title

;
Synthesis, structural characterization, and physical properties of the type-I
clathrates A8 Zn18 As28 (A = K, Rb, Cs) and Cs8 Cd18 As28
;
loop_
_citation_id
_citation_journal_full
_citation_year
_citation_journal_volume
_citation_page_first
_citation_page_last
_citation_journal_id_ASTM
primary 'Chemistry of Materials' 2012 24 3596 3603 CMATEX
loop_
_citation_author_citation_id
_citation_author_name
primary 'He, Hua'
primary 'Zevalkink, Alex'
primary 'Gibbs, Zachary M.'
primary 'Snyder, G.Jeffrey'
primary 'Bobev, Svilen'
_cell_length_a 10.7173(6)
_cell_length_b 10.7173(6)
_cell_length_c 10.7173(6)
_cell_angle_alpha 90.
_cell_angle_beta 90.
_cell_angle_gamma 90.
_cell_volume 1230.99
_cell_formula_units_Z 1
_space_group_name_H-M_alt 'P m -3 n'
_space_group_IT_number 223
loop_
_space_group_symop_id
_space_group_symop_operation_xyz
1 'z+1/2, -y+1/2, x+1/2'
2 'y+1/2, -x+1/2, z+1/2'
3 'x+1/2, -z+1/2, y+1/2'
4 '-z+1/2, y+1/2, -x+1/2'
5 '-y+1/2, x+1/2, -z+1/2'
6 '-x+1/2, z+1/2, -y+1/2'
7 'z+1/2, y+1/2, -x+1/2'
8 'y+1/2, x+1/2, -z+1/2'
9 'x+1/2, z+1/2, -y+1/2'
10 '-z+1/2, -y+1/2, x+1/2'
11 '-y+1/2, -x+1/2, z+1/2'
12 '-x+1/2, -z+1/2, y+1/2'
13 '-z+1/2, y+1/2, x+1/2'
14 '-y+1/2, x+1/2, z+1/2'
15 '-x+1/2, z+1/2, y+1/2'
16 'z+1/2, -y+1/2, -x+1/2'
17 'y+1/2, -x+1/2, -z+1/2'
18 'x+1/2, -z+1/2, -y+1/2'
19 '-z+1/2, -y+1/2, -x+1/2'
20 '-y+1/2, -x+1/2, -z+1/2'
21 '-x+1/2, -z+1/2, -y+1/2'
22 'z+1/2, y+1/2, x+1/2'
23 'y+1/2, x+1/2, z+1/2'
24 'x+1/2, z+1/2, y+1/2'
25 'z, x, -y'
26 'y, z, -x'
27 'x, y, -z'
28 '-z, -x, y'
29 '-y, -z, x'
30 '-x, -y, z'
31 'z, -x, y'
32 'y, -z, x'
33 'x, -y, z'
34 '-z, x, -y'
35 '-y, z, -x'
36 '-x, y, -z'
37 '-z, x, y'
38 '-y, z, x'
39 '-x, y, z'
40 'z, -x, -y'
41 'y, -z, -x'
42 'x, -y, -z'
43 '-z, -x, -y'
44 '-y, -z, -x'
45 '-x, -y, -z'
46 'z, x, y'
47 'y, z, x'
48 'x, y, z'
loop_
_atom_type_symbol
_atom_type_oxidation_number
K1+ 1
As2- -1.57
Zn2+ 2
As2- -1.57
Zn2+ 2
As2- -1.57
Zn2+ 2
As2- -1.57
Zn2+ 2
loop_
_atom_site_label
_atom_site_type_symbol
_atom_site_symmetry_multiplicity
_atom_site_Wyckoff_symbol
_atom_site_fract_x
_atom_site_fract_y
_atom_site_fract_z
_atom_site_U_iso_or_equiv
_atom_site_occupancy
K1 K1+ 2 a 0. 0. 0. 0.0192(13) 0.611(10)
K2 K1+ 6 d 0.25 0.5 0. 0.0343(4) 1
As1 As2- 6 c 0.25 0. 0.5 0.01271(17) 0.5
Zn1 Zn2+ 6 c 0.25 0. 0.5 0.01271(17) 0.5
As2 As2- 16 i 0.18343(6) 0.18343(6) 0.18343(6) 0.0138(2) 0.731(3)
Zn2 Zn2+ 16 i 0.18343(6) 0.18343(6) 0.18343(6) 0.0138(2) 0.1827(6)
As3 As2- 16 i 0.1526(6) 0.1526(6) 0.1526(6) 0.0138(2) 0.069(3)
Zn3 Zn2+ 16 i 0.1526(6) 0.1526(6) 0.1526(6) 0.01376(3) 0.0173(6)
As4 As2- 24 k 0. 0.31091(3) 0.11805(3) 0.01415(11) 0.5
Zn4 Zn2+ 24 k 0. 0.31091(3) 0.11805(3) 0.01415(11) 0.5
loop_
_atom_site_aniso_label
_atom_site_aniso_type_symbol
_atom_site_aniso_U_11
_atom_site_aniso_U_22
_atom_site_aniso_U_33
_atom_site_aniso_U_12
_atom_site_aniso_U_13
_atom_site_aniso_U_23
K1 K1+ 0.0192(13) 0.0192(13) 0.0192(13) 0. 0. 0.
K2 K1+ 0.0215(9) 0.0407(7) 0.0407(7) 0. 0. 0.
As1 As2- 0.0139(4) 0.0121(2) 0.0121(2) 0. 0. 0.
Zn1 Zn2+ 0.0139(4) 0.0121(2) 0.0121(2) 0. 0. 0.
As2 As2- 0.0138(2) 0.0138(2) 0.0138(2) -0.00040(18) -0.00040(18) -0.00040(18)
Zn2 Zn2+ 0.0138(2) 0.0138(2) 0.0138(2) -0.00040(18) -0.00040(18) -0.00040(18)
As3 As2- 0.0138(2) 0.0138(2) 0.0138(2) -0.00040(18) -0.00040(18) -0.00040(18)
Zn3 Zn2+ 0.01376(3) 0.01376(3) 0.01376(3) -0.00040(3) -0.00040(3) -0.00040(3)
As4 As2- 0.01442(19) 0.01245(19) 0.0156(2) 0. 0. -0.00082(14)
Zn4 Zn2+ 0.01442(19) 0.01245(19) 0.0156(2) 0. 0. -0.00082(14)
#End of TTdata_424860-ICSD