
#(C) 2025 by FIZ Karlsruhe - Leibniz Institute for Information Infrastructure.  All rights reserved.
data_97477-ICSD
_database_code_ICSD 97477
_audit_creation_date 2004-10-01
_chemical_name_common 'Barium silicide germanide (7.71/42.7/3.07) - type I'
_chemical_formula_structural 'Ba7.71 Si42.7 Ge3.07'
_chemical_formula_sum 'Ba7.71 Ge3.07 Si42.7'
_chemical_name_structure_type K8Si46
_exptl_crystal_density_diffrn 3.74
_citation_title

;
Superconductivity and crystal structure of the solid solutions of Ba8-d Si46-x
Gex (0 <= x <= 23) with type I clathrate structure
;
loop_
_citation_id
_citation_journal_full
_citation_year
_citation_journal_volume
_citation_page_first
_citation_page_last
_citation_journal_id_ASTM
primary 'Journal of Solid State Chemistry' 2003 175 237 244 JSSCBI
loop_
_citation_author_citation_id
_citation_author_name
primary 'Fukuoka, H.'
primary 'Kiyoto, J.'
primary 'Yamanaka, S.'
_cell_length_a 10.325(3)
_cell_length_b 10.325(3)
_cell_length_c 10.325(3)
_cell_angle_alpha 90
_cell_angle_beta 90
_cell_angle_gamma 90
_cell_volume 1100.7
_cell_formula_units_Z 1
_space_group_name_H-M_alt 'P m -3 n'
_space_group_IT_number 223
loop_
_space_group_symop_id
_space_group_symop_operation_xyz
1 'z+1/2, -y+1/2, x+1/2'
2 'y+1/2, -x+1/2, z+1/2'
3 'x+1/2, -z+1/2, y+1/2'
4 '-z+1/2, y+1/2, -x+1/2'
5 '-y+1/2, x+1/2, -z+1/2'
6 '-x+1/2, z+1/2, -y+1/2'
7 'z+1/2, y+1/2, -x+1/2'
8 'y+1/2, x+1/2, -z+1/2'
9 'x+1/2, z+1/2, -y+1/2'
10 '-z+1/2, -y+1/2, x+1/2'
11 '-y+1/2, -x+1/2, z+1/2'
12 '-x+1/2, -z+1/2, y+1/2'
13 '-z+1/2, y+1/2, x+1/2'
14 '-y+1/2, x+1/2, z+1/2'
15 '-x+1/2, z+1/2, y+1/2'
16 'z+1/2, -y+1/2, -x+1/2'
17 'y+1/2, -x+1/2, -z+1/2'
18 'x+1/2, -z+1/2, -y+1/2'
19 '-z+1/2, -y+1/2, -x+1/2'
20 '-y+1/2, -x+1/2, -z+1/2'
21 '-x+1/2, -z+1/2, -y+1/2'
22 'z+1/2, y+1/2, x+1/2'
23 'y+1/2, x+1/2, z+1/2'
24 'x+1/2, z+1/2, y+1/2'
25 'z, x, -y'
26 'y, z, -x'
27 'x, y, -z'
28 '-z, -x, y'
29 '-y, -z, x'
30 '-x, -y, z'
31 'z, -x, y'
32 'y, -z, x'
33 'x, -y, z'
34 '-z, x, -y'
35 '-y, z, -x'
36 '-x, y, -z'
37 '-z, x, y'
38 '-y, z, x'
39 '-x, y, z'
40 'z, -x, -y'
41 'y, -z, -x'
42 'x, -y, -z'
43 '-z, -x, -y'
44 '-y, -z, -x'
45 '-x, -y, -z'
46 'z, x, y'
47 'y, z, x'
48 'x, y, z'
loop_
_atom_type_symbol
_atom_type_oxidation_number
Ba0+ 0
Si0+ 0
Ge0+ 0
loop_
_atom_site_label
_atom_site_type_symbol
_atom_site_symmetry_multiplicity
_atom_site_Wyckoff_symbol
_atom_site_fract_x
_atom_site_fract_y
_atom_site_fract_z
_atom_site_B_iso_or_equiv
_atom_site_occupancy
Ba1 Ba0+ 2 a 0 0 0 1.46(2) 0.856(5)
Ba2 Ba0+ 6 d 0.25 0.5 0 1.75(3) 1.
Si1 Si0+ 6 c 0.25 0 0.5 1.18(7) 0.963(7)
Si2 Si0+ 16 i 0.18501(8) 0.18501(8) 0.18501(8) 1.10(1) 1.
Si3 Si0+ 24 k 0 0.3081(1) 0.1229(1) 1.35(3) 0.872(4)
Ge1 Ge0+ 24 k 0 0.3081(1) 0.1229(1) 1.35(3) 0.128(4)
loop_
_atom_site_aniso_label
_atom_site_aniso_type_symbol
_atom_site_aniso_U_11
_atom_site_aniso_U_22
_atom_site_aniso_U_33
_atom_site_aniso_U_12
_atom_site_aniso_U_13
_atom_site_aniso_U_23
Ba1 Ba0+ 0.0185(5) 0.0185(5) 0.0185(5) 0. 0. 0.
Ba2 Ba0+ 0.0215(5) 0.0225(3) 0.0225(3) 0. 0. 0.
Si1 Si0+ 0.010(1) 0.010(1) 0.026(2) 0. 0. 0.
Si2 Si0+ 0.0139(4) 0.0139(4) 0.0139(4) 0.0005(5) 0.0005(5) 0.0005(5)
Si3 Si0+ 0.0130(7) 0.0187(7) 0.0196(8) 0. 0. 0.0020(7)
Ge1 Ge0+ 0.0130(7) 0.0187(7) 0.0196(8) 0. 0. 0.0020(7)
#End of TTdata_97477-ICSD