
#(C) 2025 by FIZ Karlsruhe - Leibniz Institute for Information Infrastructure.  All rights reserved.
data_422587-ICSD
_database_code_ICSD 422587
_audit_creation_date 2016-02-01
_chemical_name_common 'Barium gallium germanide (8/15.92/29.85)'
_chemical_formula_structural 'Ba8 (Ga16 Ge30)0.995'
_chemical_formula_sum 'Ba8 Ga15.92 Ge29.85'
_chemical_name_structure_type K8Si46
_exptl_crystal_density_diffrn 5.89
_diffrn_ambient_temperature 20.
_diffrn_ambient_pressure 101325.
_citation_title

;
Quantitative relation between structure and thermal conductivity in type-I
clathrates X8 Ga16 Ge30 (X = Sr, Ba) based on electrostatic-potential analysis
;
loop_
_citation_id
_citation_journal_full
_citation_year
_citation_journal_volume
_citation_page_first
_citation_page_last
_citation_journal_id_ASTM
primary 'Physical Review B: Condensed Matter and Materials Physics' 2012 85 1 6
PRBMDO
loop_
_citation_author_citation_id
_citation_author_name
primary 'Fujiwara, Akihiko'
primary 'Sugimoto, Kunihisa'
primary 'Shih, Che-Hsiu'
primary 'Tanaka, Hiroshi'
primary 'Tang, Jun'
primary 'Tanabe, Yoichi'
primary 'Xu, Jingtao'
primary 'Heguri, Satoshi'
primary 'Tanigaki, Katsumi'
primary 'Takata, Masaki'
_cell_length_a 10.7261(2)
_cell_length_b 10.7261(2)
_cell_length_c 10.7261(2)
_cell_angle_alpha 90.
_cell_angle_beta 90.
_cell_angle_gamma 90.
_cell_volume 1234.03
_cell_formula_units_Z 1
_space_group_name_H-M_alt 'P m -3 n'
_space_group_IT_number 223
loop_
_space_group_symop_id
_space_group_symop_operation_xyz
1 'z+1/2, -y+1/2, x+1/2'
2 'y+1/2, -x+1/2, z+1/2'
3 'x+1/2, -z+1/2, y+1/2'
4 '-z+1/2, y+1/2, -x+1/2'
5 '-y+1/2, x+1/2, -z+1/2'
6 '-x+1/2, z+1/2, -y+1/2'
7 'z+1/2, y+1/2, -x+1/2'
8 'y+1/2, x+1/2, -z+1/2'
9 'x+1/2, z+1/2, -y+1/2'
10 '-z+1/2, -y+1/2, x+1/2'
11 '-y+1/2, -x+1/2, z+1/2'
12 '-x+1/2, -z+1/2, y+1/2'
13 '-z+1/2, y+1/2, x+1/2'
14 '-y+1/2, x+1/2, z+1/2'
15 '-x+1/2, z+1/2, y+1/2'
16 'z+1/2, -y+1/2, -x+1/2'
17 'y+1/2, -x+1/2, -z+1/2'
18 'x+1/2, -z+1/2, -y+1/2'
19 '-z+1/2, -y+1/2, -x+1/2'
20 '-y+1/2, -x+1/2, -z+1/2'
21 '-x+1/2, -z+1/2, -y+1/2'
22 'z+1/2, y+1/2, x+1/2'
23 'y+1/2, x+1/2, z+1/2'
24 'x+1/2, z+1/2, y+1/2'
25 'z, x, -y'
26 'y, z, -x'
27 'x, y, -z'
28 '-z, -x, y'
29 '-y, -z, x'
30 '-x, -y, z'
31 'z, -x, y'
32 'y, -z, x'
33 'x, -y, z'
34 '-z, x, -y'
35 '-y, z, -x'
36 '-x, y, -z'
37 '-z, x, y'
38 '-y, z, x'
39 '-x, y, z'
40 'z, -x, -y'
41 'y, -z, -x'
42 'x, -y, -z'
43 '-z, -x, -y'
44 '-y, -z, -x'
45 '-x, -y, -z'
46 'z, x, y'
47 'y, z, x'
48 'x, y, z'
loop_
_atom_type_symbol
_atom_type_oxidation_number
Ba0+ 0
Ga0+ 0
Ge0+ 0
Ga0+ 0
Ge0+ 0
Ga0+ 0
Ge0+ 0
loop_
_atom_site_label
_atom_site_type_symbol
_atom_site_symmetry_multiplicity
_atom_site_Wyckoff_symbol
_atom_site_fract_x
_atom_site_fract_y
_atom_site_fract_z
_atom_site_U_iso_or_equiv
_atom_site_occupancy
Ba1 Ba0+ 2 a 0. 0. 0. 0.00283(4) 1
Ba2 Ba0+ 6 d 0.25 0.5 0. 0.0120(3) 0.3315(8)
Ba3 Ba0+ 24 k 0.24893(15) 0.5 0.0156(4) 0.0120(3) 0.1684(5)
Ga1 Ga0+ 6 c 0. 0.5 0.25 0.00273(4) 0.3427(6)
Ge1 Ge0+ 6 c 0. 0.5 0.25 0.00273(4) 0.6426(11)
Ga2 Ga0+ 16 i 0.184516(7) 0.184516(7) 0.184516(7) 0.00263(2) 0.3475(5)
Ge2 Ge0+ 16 i 0.184516(7) 0.184516(7) 0.184516(7) 0.00263(2) 0.6516(10)
Ga3 Ga0+ 24 k 0. 0.308470(10) 0.117977(10) 0.00278(2) 0.3460(5)
Ge3 Ge0+ 24 k 0. 0.308470(10) 0.117977(10) 0.00278(2) 0.6489(10)
loop_
_atom_site_aniso_label
_atom_site_aniso_type_symbol
_atom_site_aniso_U_11
_atom_site_aniso_U_22
_atom_site_aniso_U_33
_atom_site_aniso_U_12
_atom_site_aniso_U_13
_atom_site_aniso_U_23
Ba1 Ba0+ 0.00283(4) 0.00283(4) 0.00283(4) 0. 0. 0.
Ba2 Ba0+ 0.00452(7) 0.0157(5) 0.0157(5) 0. 0. 0.
Ba3 Ba0+ 0.00452(7) 0.0157(5) 0.0157(5) 0. 0. 0.
Ga1 Ga0+ 0.00261(5) 0.00261(5) 0.00297(8) 0. 0. 0.
Ge1 Ge0+ 0.00261(5) 0.00261(5) 0.00297(8) 0. 0. 0.
Ga2 Ga0+ 0.00263(2) 0.00263(2) 0.00263(2) -0.00027(2) -0.00027(2) -0.00027(2)
Ge2 Ge0+ 0.00263(2) 0.00263(2) 0.00263(2) -0.00027(2) -0.00027(2) -0.00027(2)
Ga3 Ga0+ 0.00283(4) 0.00271(4) 0.00279(4) 0. 0. -0.00030(3)
Ge3 Ge0+ 0.00283(4) 0.00271(4) 0.00279(4) 0. 0. -0.00030(3)
#End of TTdata_422587-ICSD