
#(C) 2025 by FIZ Karlsruhe - Leibniz Institute for Information Infrastructure.  All rights reserved.
data_433278-ICSD
_database_code_ICSD 433278
_audit_creation_date 2018-02-01
_chemical_name_common 'Germanium arsenic iodide (39.361/6.231/7.868)'
_chemical_formula_structural 'Ge39.361 As6.231 I7.868'
_chemical_formula_sum 'As6.231 Ge39.361 I7.868'
_chemical_name_structure_type K8Si46
_exptl_crystal_density_diffrn 6.
_diffrn_ambient_temperature 293.
_citation_title

;
Towards MXPn-type compounds in the systems Ge-I-Pn (Pn = P, As) - new insights
in the structures and properties of inverse type I clathrates
;
loop_
_citation_id
_citation_journal_full
_citation_year
_citation_journal_volume
_citation_page_first
_citation_page_last
_citation_journal_id_ASTM
primary 'Zeitschrift fuer Anorganische und Allgemeine Chemie' 2017 643 1444 1450
ZAACAB
loop_
_citation_author_citation_id
_citation_author_name
primary 'Baumer, Franziska'
primary 'Reiter, Felix'
primary 'Nilges, Tom'
_cell_length_a 10.6177(5)
_cell_length_b 10.6177(5)
_cell_length_c 10.6177(5)
_cell_angle_alpha 90
_cell_angle_beta 90
_cell_angle_gamma 90
_cell_volume 1196.99
_cell_formula_units_Z 1
_space_group_name_H-M_alt 'P m -3 n'
_space_group_IT_number 223
loop_
_space_group_symop_id
_space_group_symop_operation_xyz
1 'z+1/2, -y+1/2, x+1/2'
2 'y+1/2, -x+1/2, z+1/2'
3 'x+1/2, -z+1/2, y+1/2'
4 '-z+1/2, y+1/2, -x+1/2'
5 '-y+1/2, x+1/2, -z+1/2'
6 '-x+1/2, z+1/2, -y+1/2'
7 'z+1/2, y+1/2, -x+1/2'
8 'y+1/2, x+1/2, -z+1/2'
9 'x+1/2, z+1/2, -y+1/2'
10 '-z+1/2, -y+1/2, x+1/2'
11 '-y+1/2, -x+1/2, z+1/2'
12 '-x+1/2, -z+1/2, y+1/2'
13 '-z+1/2, y+1/2, x+1/2'
14 '-y+1/2, x+1/2, z+1/2'
15 '-x+1/2, z+1/2, y+1/2'
16 'z+1/2, -y+1/2, -x+1/2'
17 'y+1/2, -x+1/2, -z+1/2'
18 'x+1/2, -z+1/2, -y+1/2'
19 '-z+1/2, -y+1/2, -x+1/2'
20 '-y+1/2, -x+1/2, -z+1/2'
21 '-x+1/2, -z+1/2, -y+1/2'
22 'z+1/2, y+1/2, x+1/2'
23 'y+1/2, x+1/2, z+1/2'
24 'x+1/2, z+1/2, y+1/2'
25 'z, x, -y'
26 'y, z, -x'
27 'x, y, -z'
28 '-z, -x, y'
29 '-y, -z, x'
30 '-x, -y, z'
31 'z, -x, y'
32 'y, -z, x'
33 'x, -y, z'
34 '-z, x, -y'
35 '-y, z, -x'
36 '-x, y, -z'
37 '-z, x, y'
38 '-y, z, x'
39 '-x, y, z'
40 'z, -x, -y'
41 'y, -z, -x'
42 'x, -y, -z'
43 '-z, -x, -y'
44 '-y, -z, -x'
45 '-x, -y, -z'
46 'z, x, y'
47 'y, z, x'
48 'x, y, z'
loop_
_atom_type_symbol
_atom_type_oxidation_number
I0+ 0
Ge0+ 0
As0+ 0
Ge0+ 0
As0+ 0
Ge0+ 0
As0+ 0
loop_
_atom_site_label
_atom_site_type_symbol
_atom_site_symmetry_multiplicity
_atom_site_Wyckoff_symbol
_atom_site_fract_x
_atom_site_fract_y
_atom_site_fract_z
_atom_site_U_iso_or_equiv
_atom_site_occupancy
I1 I0+ 2 a 0 0 0 0.0044(3) 0.934(8)
I2 I0+ 6 d 0.25 0.5 0 0.0126(2) 1
Ge1 Ge0+ 6 c 0.5 0.25 0 0.0068(3) 0.8634
As1 As0+ 6 c 0.5 0.25 0 0.0068(3) 0.1366
Ge2 Ge0+ 16 i 0.18350(4) 0.18350(4) 0.18350(4) 0.00481(17) 0.8634
As2 As0+ 16 i 0.18350(4) 0.18350(4) 0.18350(4) 0.00481(17) 0.1366
Ge3 Ge0+ 24 k 0.30974(6) 0.11741(6) 0 0.0059(2) 0.8486
As3 As0+ 24 k 0.30974(6) 0.11741(6) 0 0.0059(2) 0.1344
loop_
_atom_site_aniso_label
_atom_site_aniso_type_symbol
_atom_site_aniso_U_11
_atom_site_aniso_U_22
_atom_site_aniso_U_33
_atom_site_aniso_U_12
_atom_site_aniso_U_13
_atom_site_aniso_U_23
I1 I0+ 0.0044(6) 0.0044(6) 0.0044(6) 0 0 0
I2 I0+ 0.0080(4) 0.0149(3) 0.0149(3) 0 0 0
Ge1 Ge0+ 0.0062(4) 0.0079(6) 0.0062(4) 0 0 0
As1 As0+ 0.0062(4) 0.0079(6) 0.0062(4) 0 0 0
Ge2 Ge0+ 0.0048(3) 0.0048(3) 0.0048(3) -0.00016(17) -0.00016(17) -0.00016(17)
As2 As0+ 0.0048(3) 0.0048(3) 0.0048(3) -0.00016(17) -0.00016(17) -0.00016(17)
Ge3 Ge0+ 0.0062(4) 0.0052(4) 0.0063(4) -0.0013(2) 0 0
As3 As0+ 0.0062(4) 0.0052(4) 0.0063(4) -0.0013(2) 0 0
#End of TTdata_433278-ICSD