
#(C) 2025 by FIZ Karlsruhe - Leibniz Institute for Information Infrastructure.  All rights reserved.
data_177998-ICSD
_database_code_ICSD 177998
_audit_creation_date 2025-02-01
_chemical_name_common 'Cesium zinc cadmium antimonide (8/9/9/28)'
_chemical_formula_structural 'Cs8 Zn9 Cd9 Sb28'
_chemical_formula_sum 'Cd9 Cs8 Sb28 Zn9'
_chemical_name_structure_type K8Si46
_exptl_crystal_density_diffrn 5.89
_diffrn_ambient_temperature 100.
_citation_title

;
Chemically driven superstructural ordering leading to giant unit cells in
unconventional clathrates Cs$_8$Zn$_{18}$Sb$_{28}$ and
Cs$_8$Cd$_{18}$Sb$_{28}$
;
loop_
_citation_id
_citation_journal_full
_citation_year
_citation_journal_volume
_citation_page_first
_citation_page_last
_citation_journal_id_ASTM
primary 'Chemical Science' 2020 11 10255 10264 CSHCCN
loop_
_citation_author_citation_id
_citation_author_name
primary 'Owens-Baird, Bryan'
primary 'Yox, Philip'
primary 'Lee, Shannon'
primary 'Carroll, Xian B.'
primary 'Grass Wang, Suyin'
primary 'Chen, Yu-Sheng'
primary 'Lebedev, Oleg I.'
primary 'Kovnir, Kirill'
_cell_length_a 11.9595(7)
_cell_length_b 11.9595(7)
_cell_length_c 11.9595(7)
_cell_angle_alpha 90
_cell_angle_beta 90
_cell_angle_gamma 90
_cell_volume 1710.56
_cell_formula_units_Z 1
_space_group_name_H-M_alt 'P m -3 n'
_space_group_IT_number 223
loop_
_space_group_symop_id
_space_group_symop_operation_xyz
1 'z+1/2, -y+1/2, x+1/2'
2 'y+1/2, -x+1/2, z+1/2'
3 'x+1/2, -z+1/2, y+1/2'
4 '-z+1/2, y+1/2, -x+1/2'
5 '-y+1/2, x+1/2, -z+1/2'
6 '-x+1/2, z+1/2, -y+1/2'
7 'z+1/2, y+1/2, -x+1/2'
8 'y+1/2, x+1/2, -z+1/2'
9 'x+1/2, z+1/2, -y+1/2'
10 '-z+1/2, -y+1/2, x+1/2'
11 '-y+1/2, -x+1/2, z+1/2'
12 '-x+1/2, -z+1/2, y+1/2'
13 '-z+1/2, y+1/2, x+1/2'
14 '-y+1/2, x+1/2, z+1/2'
15 '-x+1/2, z+1/2, y+1/2'
16 'z+1/2, -y+1/2, -x+1/2'
17 'y+1/2, -x+1/2, -z+1/2'
18 'x+1/2, -z+1/2, -y+1/2'
19 '-z+1/2, -y+1/2, -x+1/2'
20 '-y+1/2, -x+1/2, -z+1/2'
21 '-x+1/2, -z+1/2, -y+1/2'
22 'z+1/2, y+1/2, x+1/2'
23 'y+1/2, x+1/2, z+1/2'
24 'x+1/2, z+1/2, y+1/2'
25 'z, x, -y'
26 'y, z, -x'
27 'x, y, -z'
28 '-z, -x, y'
29 '-y, -z, x'
30 '-x, -y, z'
31 'z, -x, y'
32 'y, -z, x'
33 'x, -y, z'
34 '-z, x, -y'
35 '-y, z, -x'
36 '-x, y, -z'
37 '-z, x, y'
38 '-y, z, x'
39 '-x, y, z'
40 'z, -x, -y'
41 'y, -z, -x'
42 'x, -y, -z'
43 '-z, -x, -y'
44 '-y, -z, -x'
45 '-x, -y, -z'
46 'z, x, y'
47 'y, z, x'
48 'x, y, z'
loop_
_atom_type_symbol
_atom_type_oxidation_number
Cs0+ 0
Sb0+ 0
Zn0+ 0
Cd0+ 0
Sb0+ 0
Zn0+ 0
Cd0+ 0
Sb0+ 0
Zn0+ 0
Cd0+ 0
loop_
_atom_site_label
_atom_site_type_symbol
_atom_site_symmetry_multiplicity
_atom_site_Wyckoff_symbol
_atom_site_fract_x
_atom_site_fract_y
_atom_site_fract_z
_atom_site_U_iso_or_equiv
_atom_site_occupancy
Cs1 Cs0+ 2 a 0. 0. 0. 0.0068(3) 1
Cs2 Cs0+ 6 c 0.5 0.25 0. 0.0180(3) 1
Sb1 Sb0+ 6 d 0.5 0. 0.25 0.0102(4) 0.43(6)
Zn1 Zn0+ 6 d 0.5 0. 0.25 0.0102(4) 0.16(3)
Cd1 Cd0+ 6 d 0.5 0. 0.25 0.0102(4) 0.41(7)
Sb2 Sb0+ 16 i 0.18294(3) 0.18294(3) 0.18294(3) 0.0079(2) 0.83(3)
Zn2 Zn0+ 16 i 0.18294(3) 0.18294(3) 0.18294(3) 0.0079(2) 0.12(2)
Cd2 Cd0+ 16 i 0.18294(3) 0.18294(3) 0.18294(3) 0.0079(2) 0.05(3)
Sb3 Sb0+ 24 k 0.31204(5) 0. 0.11669(5) 0.00880(18) 0.51(2)
Zn3 Zn0+ 24 k 0.31204(5) 0. 0.11669(5) 0.00880(18) 0.256(16)
Cd3 Cd0+ 24 k 0.31204(5) 0. 0.11669(5) 0.00880(18) 0.24(2)
loop_
_atom_site_aniso_label
_atom_site_aniso_type_symbol
_atom_site_aniso_U_11
_atom_site_aniso_U_22
_atom_site_aniso_U_33
_atom_site_aniso_U_12
_atom_site_aniso_U_13
_atom_site_aniso_U_23
Cs1 Cs0+ 0.0068(3) 0.0068(3) 0.0068(3) 0. 0. 0.
Cs2 Cs0+ 0.0235(4) 0.0070(6) 0.0235(4) 0. 0. 0.
Sb1 Sb0+ 0.0088(5) 0.0088(5) 0.0130(7) 0. 0. 0.
Zn1 Zn0+ 0.0088(5) 0.0088(5) 0.0130(7) 0. 0. 0.
Cd1 Cd0+ 0.0088(5) 0.0088(5) 0.0130(7) 0. 0. 0.
Sb2 Sb0+ 0.0079(2) 0.0079(2) 0.0079(2) -0.00053(15) -0.00053(15) -0.00053(15)
Zn2 Zn0+ 0.0079(2) 0.0079(2) 0.0079(2) -0.00053(15) -0.00053(15) -0.00053(15)
Cd2 Cd0+ 0.0079(2) 0.0079(2) 0.0079(2) -0.00053(15) -0.00053(15) -0.00053(15)
Sb3 Sb0+ 0.0071(3) 0.0074(3) 0.0119(4) 0. 0.0001(3) 0.
Zn3 Zn0+ 0.0071(3) 0.0074(3) 0.0119(4) 0. 0.0001(3) 0.
Cd3 Cd0+ 0.0071(3) 0.0074(3) 0.0119(4) 0. 0.0001(3) 0.
#End of TTdata_177998-ICSD