
#(C) 2025 by FIZ Karlsruhe - Leibniz Institute for Information Infrastructure.  All rights reserved.
data_424863-ICSD
_database_code_ICSD 424863
_audit_creation_date 2015-08-01
_chemical_name_common 'Rubidium zinc arsenide (7.17/18.2/27.8)'
_chemical_formula_structural 'Rb7.17 Zn18.20 As27.80'
_chemical_formula_sum 'As27.8 Rb7.17 Zn18.2'
_chemical_name_structure_type K8Si46
_exptl_crystal_density_diffrn 5.21
_diffrn_ambient_temperature 200.
_citation_title

;
Synthesis, structural characterization, and physical properties of the type-I
clathrates A8 Zn18 As28 (A = K, Rb, Cs) and Cs8 Cd18 As28
;
loop_
_citation_id
_citation_journal_full
_citation_year
_citation_journal_volume
_citation_page_first
_citation_page_last
_citation_journal_id_ASTM
primary 'Chemistry of Materials' 2012 24 3596 3603 CMATEX
loop_
_citation_author_citation_id
_citation_author_name
primary 'He, Hua'
primary 'Zevalkink, Alex'
primary 'Gibbs, Zachary M.'
primary 'Snyder, G.Jeffrey'
primary 'Bobev, Svilen'
_cell_length_a 10.7413(6)
_cell_length_b 10.7413(6)
_cell_length_c 10.7413(6)
_cell_angle_alpha 90.
_cell_angle_beta 90.
_cell_angle_gamma 90.
_cell_volume 1239.28
_cell_formula_units_Z 1
_space_group_name_H-M_alt 'P m -3 n'
_space_group_IT_number 223
loop_
_space_group_symop_id
_space_group_symop_operation_xyz
1 'z+1/2, -y+1/2, x+1/2'
2 'y+1/2, -x+1/2, z+1/2'
3 'x+1/2, -z+1/2, y+1/2'
4 '-z+1/2, y+1/2, -x+1/2'
5 '-y+1/2, x+1/2, -z+1/2'
6 '-x+1/2, z+1/2, -y+1/2'
7 'z+1/2, y+1/2, -x+1/2'
8 'y+1/2, x+1/2, -z+1/2'
9 'x+1/2, z+1/2, -y+1/2'
10 '-z+1/2, -y+1/2, x+1/2'
11 '-y+1/2, -x+1/2, z+1/2'
12 '-x+1/2, -z+1/2, y+1/2'
13 '-z+1/2, y+1/2, x+1/2'
14 '-y+1/2, x+1/2, z+1/2'
15 '-x+1/2, z+1/2, y+1/2'
16 'z+1/2, -y+1/2, -x+1/2'
17 'y+1/2, -x+1/2, -z+1/2'
18 'x+1/2, -z+1/2, -y+1/2'
19 '-z+1/2, -y+1/2, -x+1/2'
20 '-y+1/2, -x+1/2, -z+1/2'
21 '-x+1/2, -z+1/2, -y+1/2'
22 'z+1/2, y+1/2, x+1/2'
23 'y+1/2, x+1/2, z+1/2'
24 'x+1/2, z+1/2, y+1/2'
25 'z, x, -y'
26 'y, z, -x'
27 'x, y, -z'
28 '-z, -x, y'
29 '-y, -z, x'
30 '-x, -y, z'
31 'z, -x, y'
32 'y, -z, x'
33 'x, -y, z'
34 '-z, x, -y'
35 '-y, z, -x'
36 '-x, y, -z'
37 '-z, x, y'
38 '-y, z, x'
39 '-x, y, z'
40 'z, -x, -y'
41 'y, -z, -x'
42 'x, -y, -z'
43 '-z, -x, -y'
44 '-y, -z, -x'
45 '-x, -y, -z'
46 'z, x, y'
47 'y, z, x'
48 'x, y, z'
loop_
_atom_type_symbol
_atom_type_oxidation_number
Rb1+ 1
As2- -1.57
Zn2+ 2
As2- -1.57
Zn2+ 2
As2- -1.57
Zn2+ 2
As2- -1.57
Zn2+ 2
loop_
_atom_site_label
_atom_site_type_symbol
_atom_site_symmetry_multiplicity
_atom_site_Wyckoff_symbol
_atom_site_fract_x
_atom_site_fract_y
_atom_site_fract_z
_atom_site_U_iso_or_equiv
_atom_site_occupancy
Rb1 Rb1+ 2 a 0. 0. 0. 0.0123(9) 0.583(7)
Rb2 Rb1+ 6 d 0.25 0.5 0. 0.0235(3) 1
As1 As2- 6 c 0.25 0. 0.5 0.0115(2) 0.5
Zn1 Zn2+ 6 c 0.25 0. 0.5 0.0115(2) 0.5
As2 As2- 16 i 0.18338(9) 0.18338(9) 0.18338(9) 0.0125(3) 0.733(4)
Zn2 Zn2+ 16 i 0.18338(9) 0.18338(9) 0.18338(9) 0.0125(3) 0.1833(9)
As3 As2- 16 i 0.1513(9) 0.1513(9) 0.1513(9) 0.0125(3) 0.067(4)
Zn3 Zn2+ 16 i 0.1513(9) 0.1513(9) 0.1513(9) 0.01254(5) 0.0167(9)
As4 As2- 24 k 0. 0.31042(5) 0.11859(5) 0.01277(15) 0.5
Zn4 Zn2+ 24 k 0. 0.31042(5) 0.11859(5) 0.01277(15) 0.5
loop_
_atom_site_aniso_label
_atom_site_aniso_type_symbol
_atom_site_aniso_U_11
_atom_site_aniso_U_22
_atom_site_aniso_U_33
_atom_site_aniso_U_12
_atom_site_aniso_U_13
_atom_site_aniso_U_23
Rb1 Rb1+ 0.0123(9) 0.0123(9) 0.0123(9) 0. 0. 0.
Rb2 Rb1+ 0.0147(5) 0.0279(4) 0.0279(4) 0. 0. 0.
As1 As2- 0.0124(6) 0.0111(3) 0.0111(3) 0. 0. 0.
Zn1 Zn2+ 0.0124(6) 0.0111(3) 0.0111(3) 0. 0. 0.
As2 As2- 0.0125(3) 0.0125(3) 0.0125(3) -0.0001(3) -0.0001(3) -0.0001(3)
Zn2 Zn2+ 0.0125(3) 0.0125(3) 0.0125(3) -0.0001(3) -0.0001(3) -0.0001(3)
As3 As2- 0.0125(3) 0.0125(3) 0.0125(3) -0.0001(3) -0.0001(3) -0.0001(3)
Zn3 Zn2+ 0.01254(5) 0.01254(5) 0.01254(5) -0.00011(5) -0.00011(5) -0.00011(5)
As4 As2- 0.0127(3) 0.0113(3) 0.0144(3) 0. 0. -0.0005(2)
Zn4 Zn2+ 0.0127(3) 0.0113(3) 0.0144(3) 0. 0. -0.0005(2)
#End of TTdata_424863-ICSD