
#(C) 2025 by FIZ Karlsruhe - Leibniz Institute for Information Infrastructure.  All rights reserved.
data_424151-ICSD
_database_code_ICSD 424151
_audit_creation_date 2013-08-01
_chemical_name_common 'Tin indium phosphorus bromide (15.6/7.9/21.5/8)'
_chemical_formula_structural 'Sn15.7 In7.9 P21.5 Br8'
_chemical_formula_sum 'Br8 In7.9 P21.5 Sn15.7'
_chemical_name_structure_type K8Si46
_exptl_crystal_density_diffrn 5.2
_diffrn_ambient_temperature 293.
_citation_title

;
Synthesis and clathrate-type crystal structure of a solid solution in the Sn -
In - P - Br system
;
loop_
_citation_id
_citation_journal_full
_citation_year
_citation_journal_volume
_citation_page_first
_citation_page_last
_citation_journal_id_ASTM
primary 'Russian Chemical Bulletin' 2012 61 28 32 RCBUEY
loop_
_citation_author_citation_id
_citation_author_name
primary 'Reshetova, L.N.'
primary 'Shevelkov, A.V.'
_cell_length_a 10.9160(10)
_cell_length_b 10.9160(10)
_cell_length_c 10.9160(10)
_cell_angle_alpha 90.
_cell_angle_beta 90.
_cell_angle_gamma 90.
_cell_volume 1300.74
_cell_formula_units_Z 1
_space_group_name_H-M_alt 'P m -3 n'
_space_group_IT_number 223
loop_
_space_group_symop_id
_space_group_symop_operation_xyz
1 'z+1/2, -y+1/2, x+1/2'
2 'y+1/2, -x+1/2, z+1/2'
3 'x+1/2, -z+1/2, y+1/2'
4 '-z+1/2, y+1/2, -x+1/2'
5 '-y+1/2, x+1/2, -z+1/2'
6 '-x+1/2, z+1/2, -y+1/2'
7 'z+1/2, y+1/2, -x+1/2'
8 'y+1/2, x+1/2, -z+1/2'
9 'x+1/2, z+1/2, -y+1/2'
10 '-z+1/2, -y+1/2, x+1/2'
11 '-y+1/2, -x+1/2, z+1/2'
12 '-x+1/2, -z+1/2, y+1/2'
13 '-z+1/2, y+1/2, x+1/2'
14 '-y+1/2, x+1/2, z+1/2'
15 '-x+1/2, z+1/2, y+1/2'
16 'z+1/2, -y+1/2, -x+1/2'
17 'y+1/2, -x+1/2, -z+1/2'
18 'x+1/2, -z+1/2, -y+1/2'
19 '-z+1/2, -y+1/2, -x+1/2'
20 '-y+1/2, -x+1/2, -z+1/2'
21 '-x+1/2, -z+1/2, -y+1/2'
22 'z+1/2, y+1/2, x+1/2'
23 'y+1/2, x+1/2, z+1/2'
24 'x+1/2, z+1/2, y+1/2'
25 'z, x, -y'
26 'y, z, -x'
27 'x, y, -z'
28 '-z, -x, y'
29 '-y, -z, x'
30 '-x, -y, z'
31 'z, -x, y'
32 'y, -z, x'
33 'x, -y, z'
34 '-z, x, -y'
35 '-y, z, -x'
36 '-x, y, -z'
37 '-z, x, y'
38 '-y, z, x'
39 '-x, y, z'
40 'z, -x, -y'
41 'y, -z, -x'
42 'x, -y, -z'
43 '-z, -x, -y'
44 '-y, -z, -x'
45 '-x, -y, -z'
46 'z, x, y'
47 'y, z, x'
48 'x, y, z'
loop_
_atom_type_symbol
_atom_type_oxidation_number
Br0+ 0
Sn0+ 0
In0+ 0
P0+ 0
loop_
_atom_site_label
_atom_site_type_symbol
_atom_site_symmetry_multiplicity
_atom_site_Wyckoff_symbol
_atom_site_fract_x
_atom_site_fract_y
_atom_site_fract_z
_atom_site_U_iso_or_equiv
_atom_site_occupancy
Br1 Br0+ 2 a 0. 0. 0. 0.0164(6) 1
Br2 Br0+ 6 c 0.5 0.25 0. 0.0291(5) 1
Sn1 Sn0+ 24 k 0.3119(3) 0. 0.1186(5) 0.0133(6) 0.57(3)
Sn2 Sn0+ 24 k 0.3478(10) 0. 0.1518(7) 0.008(2) 0.083(5)
In1 In0+ 24 k 0.3056(5) 0. 0.1324(7) 0.0084(11) 0.33(3)
P1 P0+ 16 i 0.19237(10) 0.19237(10) 0.19237(10) 0.0095(5) 1
P2 P0+ 6 d 0.5 0. 0.25 0.0120(8) 0.917(5)
loop_
_atom_site_aniso_label
_atom_site_aniso_type_symbol
_atom_site_aniso_U_11
_atom_site_aniso_U_22
_atom_site_aniso_U_33
_atom_site_aniso_U_12
_atom_site_aniso_U_13
_atom_site_aniso_U_23
Br1 Br0+ 0.0164(6) 0.0164(6) 0.0164(6) 0. 0. 0.
Br2 Br0+ 0.0340(7) 0.0195(9) 0.0340(7) 0. 0. 0.
P1 P0+ 0.0095(5) 0.0095(5) 0.0095(5) -0.0008(5) -0.0008(5) -0.0008(5)
P2 P0+ 0.0097(11) 0.0097(11) 0.0165(19) 0. 0. 0.
#End of TTdata_424151-ICSD