
#(C) 2025 by FIZ Karlsruhe - Leibniz Institute for Information Infrastructure.  All rights reserved.
data_423660-ICSD
_database_code_ICSD 423660
_audit_creation_date 2013-02-01
_chemical_name_common 'Barium nickel silicide (8/3.48/42.12)'
_chemical_formula_structural 'Ba8 Ni3.48 Si42.12'
_chemical_formula_sum 'Ba8 Ni3.48 Si42.12'
_chemical_name_structure_type K8Si46
_exptl_crystal_density_diffrn 3.8
_diffrn_ambient_temperature 90.
_citation_title

;
Crystal structure and thermoelectric properties of clathrate, Ba8 Ni3.5
Si42.0: Small cage volume and large disorder of the guest atom
;
loop_
_citation_id
_citation_journal_full
_citation_year
_citation_journal_volume
_citation_page_first
_citation_page_last
_citation_journal_id_ASTM
primary 'Journal of Solid State Chemistry' 2012 192 102 108 JSSCBI
loop_
_citation_author_citation_id
_citation_author_name
primary 'Roudebush, J.H.'
primary 'Orellana, M.'
primary 'Bux, S.'
primary 'Yi Tanghong'
primary 'Kauzlarich, S.M.'
_cell_length_a 10.2813(3)
_cell_length_b 10.2813(3)
_cell_length_c 10.2813(3)
_cell_angle_alpha 90.
_cell_angle_beta 90.
_cell_angle_gamma 90.
_cell_volume 1086.79
_cell_formula_units_Z 1
_space_group_name_H-M_alt 'P m -3 n'
_space_group_IT_number 223
loop_
_space_group_symop_id
_space_group_symop_operation_xyz
1 'z+1/2, -y+1/2, x+1/2'
2 'y+1/2, -x+1/2, z+1/2'
3 'x+1/2, -z+1/2, y+1/2'
4 '-z+1/2, y+1/2, -x+1/2'
5 '-y+1/2, x+1/2, -z+1/2'
6 '-x+1/2, z+1/2, -y+1/2'
7 'z+1/2, y+1/2, -x+1/2'
8 'y+1/2, x+1/2, -z+1/2'
9 'x+1/2, z+1/2, -y+1/2'
10 '-z+1/2, -y+1/2, x+1/2'
11 '-y+1/2, -x+1/2, z+1/2'
12 '-x+1/2, -z+1/2, y+1/2'
13 '-z+1/2, y+1/2, x+1/2'
14 '-y+1/2, x+1/2, z+1/2'
15 '-x+1/2, z+1/2, y+1/2'
16 'z+1/2, -y+1/2, -x+1/2'
17 'y+1/2, -x+1/2, -z+1/2'
18 'x+1/2, -z+1/2, -y+1/2'
19 '-z+1/2, -y+1/2, -x+1/2'
20 '-y+1/2, -x+1/2, -z+1/2'
21 '-x+1/2, -z+1/2, -y+1/2'
22 'z+1/2, y+1/2, x+1/2'
23 'y+1/2, x+1/2, z+1/2'
24 'x+1/2, z+1/2, y+1/2'
25 'z, x, -y'
26 'y, z, -x'
27 'x, y, -z'
28 '-z, -x, y'
29 '-y, -z, x'
30 '-x, -y, z'
31 'z, -x, y'
32 'y, -z, x'
33 'x, -y, z'
34 '-z, x, -y'
35 '-y, z, -x'
36 '-x, y, -z'
37 '-z, x, y'
38 '-y, z, x'
39 '-x, y, z'
40 'z, -x, -y'
41 'y, -z, -x'
42 'x, -y, -z'
43 '-z, -x, -y'
44 '-y, -z, -x'
45 '-x, -y, -z'
46 'z, x, y'
47 'y, z, x'
48 'x, y, z'
loop_
_atom_type_symbol
_atom_type_oxidation_number
Ba0+ 0
Si0+ 0
Ni0+ 0
Si0+ 0
Ni0+ 0
loop_
_atom_site_label
_atom_site_type_symbol
_atom_site_symmetry_multiplicity
_atom_site_Wyckoff_symbol
_atom_site_fract_x
_atom_site_fract_y
_atom_site_fract_z
_atom_site_U_iso_or_equiv
_atom_site_occupancy
Ba1 Ba0+ 2 a 0. 0. 0. 0.00656(9) 1
Ba2 Ba0+ 24 j 0.25 0.48737(5) 0.01263(5) 0.00798(12) 0.25
Si1 Si0+ 24 k 0. 0.31213(6) 0.12136(6) 0.00864(16) 0.983(3)
Ni1 Ni0+ 24 k 0. 0.31213(6) 0.12136(6) 0.00864(16) 0.017(3)
Si2 Si0+ 16 i 0.18448(4) 0.18448(4) 0.18448(4) 0.00603(12) 1
Si3 Si0+ 6 c 0. 0.5 0.25 0.0053(2) 0.420(16)
Ni2 Ni0+ 6 c 0. 0.5 0.25 0.0053(2) 0.514(8)
loop_
_atom_site_aniso_label
_atom_site_aniso_type_symbol
_atom_site_aniso_U_11
_atom_site_aniso_U_22
_atom_site_aniso_U_33
_atom_site_aniso_U_12
_atom_site_aniso_U_13
_atom_site_aniso_U_23
Si1 Si0+ 0.0057(3) 0.0087(3) 0.0114(3) 0. 0. 0.0038(2)
Ni1 Ni0+ 0.0057(3) 0.0087(3) 0.0114(3) 0. 0. 0.0038(2)
Si3 Si0+ 0.0052(2) 0.0052(2) 0.0055(3) 0. 0. 0.
Ni2 Ni0+ 0.0052(2) 0.0052(2) 0.0055(3) 0. 0. 0.
#End of TTdata_423660-ICSD