
#(C) 2025 by FIZ Karlsruhe - Leibniz Institute for Information Infrastructure.  All rights reserved.
data_162606-ICSD
_database_code_ICSD 162606
_audit_creation_date 2009-08-01
_chemical_name_common
'Barium nickel germanium (7.51/6/39.50) - type I clathrate'
_chemical_formula_structural 'Ba7.51 Ni6 Ge39.50'
_chemical_formula_sum 'Ba7.51 Ge39.5 Ni6'
_chemical_name_structure_type K8Si46
_exptl_crystal_density_diffrn 6.07
_citation_title 'Structure and low-temperature properties of Ba8 Ni6 Ge40'
loop_
_citation_id
_citation_journal_full
_citation_year
_citation_journal_volume
_citation_page_first
_citation_page_last
_citation_journal_id_ASTM
primary 'Journal of Physics and Chemistry of Solids' 2009 70 312 315 JPCSAW
loop_
_citation_author_citation_id
_citation_author_name
primary 'Zhang Hui'
primary 'Zhao Jing Tai'
primary 'Tang Meibo'
primary 'Man Zhenyong'
primary 'Chen Hao Hong'
primary 'Yang Xin Xin'
_cell_length_a 10.5179(4)
_cell_length_b 10.5179(4)
_cell_length_c 10.5179(4)
_cell_angle_alpha 90.
_cell_angle_beta 90.
_cell_angle_gamma 90.
_cell_volume 1163.56
_cell_formula_units_Z 1
_space_group_name_H-M_alt 'P m -3 n'
_space_group_IT_number 223
loop_
_space_group_symop_id
_space_group_symop_operation_xyz
1 'z+1/2, -y+1/2, x+1/2'
2 'y+1/2, -x+1/2, z+1/2'
3 'x+1/2, -z+1/2, y+1/2'
4 '-z+1/2, y+1/2, -x+1/2'
5 '-y+1/2, x+1/2, -z+1/2'
6 '-x+1/2, z+1/2, -y+1/2'
7 'z+1/2, y+1/2, -x+1/2'
8 'y+1/2, x+1/2, -z+1/2'
9 'x+1/2, z+1/2, -y+1/2'
10 '-z+1/2, -y+1/2, x+1/2'
11 '-y+1/2, -x+1/2, z+1/2'
12 '-x+1/2, -z+1/2, y+1/2'
13 '-z+1/2, y+1/2, x+1/2'
14 '-y+1/2, x+1/2, z+1/2'
15 '-x+1/2, z+1/2, y+1/2'
16 'z+1/2, -y+1/2, -x+1/2'
17 'y+1/2, -x+1/2, -z+1/2'
18 'x+1/2, -z+1/2, -y+1/2'
19 '-z+1/2, -y+1/2, -x+1/2'
20 '-y+1/2, -x+1/2, -z+1/2'
21 '-x+1/2, -z+1/2, -y+1/2'
22 'z+1/2, y+1/2, x+1/2'
23 'y+1/2, x+1/2, z+1/2'
24 'x+1/2, z+1/2, y+1/2'
25 'z, x, -y'
26 'y, z, -x'
27 'x, y, -z'
28 '-z, -x, y'
29 '-y, -z, x'
30 '-x, -y, z'
31 'z, -x, y'
32 'y, -z, x'
33 'x, -y, z'
34 '-z, x, -y'
35 '-y, z, -x'
36 '-x, y, -z'
37 '-z, x, y'
38 '-y, z, x'
39 '-x, y, z'
40 'z, -x, -y'
41 'y, -z, -x'
42 'x, -y, -z'
43 '-z, -x, -y'
44 '-y, -z, -x'
45 '-x, -y, -z'
46 'z, x, y'
47 'y, z, x'
48 'x, y, z'
loop_
_atom_type_symbol
_atom_type_oxidation_number
Ba0+ 0
Ni0+ 0
Ge0+ 0
loop_
_atom_site_label
_atom_site_type_symbol
_atom_site_symmetry_multiplicity
_atom_site_Wyckoff_symbol
_atom_site_fract_x
_atom_site_fract_y
_atom_site_fract_z
_atom_site_U_iso_or_equiv
_atom_site_occupancy
Ba1 Ba0+ 2 a 0 0 0 0.0251(17) 0.937(2)
Ba2 Ba0+ 6 d 0.25 0.5 0 0.0405(18) 0.940(2)
Ni1 Ni0+ 6 c 0.25 0 0.5 0.010(4) 1.
Ge1 Ge0+ 16 i 0.1848(2) 0.1848(2) 0.1848(2) 0.0198(9) 0.969(2)
Ge2 Ge0+ 24 k 0 0.3174(2) 0.1202(2) 0.030(2) 1.
loop_
_atom_site_aniso_label
_atom_site_aniso_type_symbol
_atom_site_aniso_U_11
_atom_site_aniso_U_22
_atom_site_aniso_U_33
_atom_site_aniso_U_12
_atom_site_aniso_U_13
_atom_site_aniso_U_23
Ba1 Ba0+ 0.0251(17) 0.0251(17) 0.0251(17) 0. 0. 0.
Ba2 Ba0+ 0.0048(20) 0.0584(17) 0.0584(17) 0. 0. 0.
Ni1 Ni0+ 0.001(3) 0.014(3) 0.014(3) 0. 0. 0.
Ge1 Ge0+ 0.0198(9) 0.0198(9) 0.0198(9) -0.0089(14) -0.0089(14) -0.0089(14)
Ge2 Ge0+ 0.026(2) 0.048(2) 0.0145(16) 0. 0. 0.0126(16)
#End of TTdata_162606-ICSD