
#(C) 2025 by FIZ Karlsruhe - Leibniz Institute for Information Infrastructure.  All rights reserved.
data_249420-ICSD
_database_code_ICSD 249420
_audit_creation_date 2008-02-01
_chemical_name_common
'Strontium barium aluminium silicide (0.67/7.33/14.10/30.64)'
_chemical_formula_structural '(Sr0.67 Ba1.33) Ba6 (Al14.10 Si30.64)'
_chemical_formula_sum 'Al14.1 Ba7.33 Si30.64 Sr0.67'
_chemical_name_structure_type K8Si46
_exptl_crystal_density_diffrn 3.22
_diffrn_ambient_temperature 90.
_citation_title

;
Structure and thermoelectric characterization of Ax Ba(8-x) Al14 Si31 (A = Sr,
Eu) single crystals
;
loop_
_citation_id
_citation_journal_full
_citation_year
_citation_journal_volume
_citation_page_first
_citation_page_last
_citation_journal_id_ASTM
primary 'Inorganic Chemistry' 2007 46 2556 2562 INOCAJ
loop_
_citation_author_citation_id
_citation_author_name
primary 'Condron, C.L.'
primary 'Kauzlarich, S.M.'
_cell_length_a 10.5962(12)
_cell_length_b 10.5962(12)
_cell_length_c 10.5962(12)
_cell_angle_alpha 90.
_cell_angle_beta 90.
_cell_angle_gamma 90.
_cell_volume 1189.74
_cell_formula_units_Z 1
_space_group_name_H-M_alt 'P m -3 n'
_space_group_IT_number 223
loop_
_space_group_symop_id
_space_group_symop_operation_xyz
1 'z+1/2, -y+1/2, x+1/2'
2 'y+1/2, -x+1/2, z+1/2'
3 'x+1/2, -z+1/2, y+1/2'
4 '-z+1/2, y+1/2, -x+1/2'
5 '-y+1/2, x+1/2, -z+1/2'
6 '-x+1/2, z+1/2, -y+1/2'
7 'z+1/2, y+1/2, -x+1/2'
8 'y+1/2, x+1/2, -z+1/2'
9 'x+1/2, z+1/2, -y+1/2'
10 '-z+1/2, -y+1/2, x+1/2'
11 '-y+1/2, -x+1/2, z+1/2'
12 '-x+1/2, -z+1/2, y+1/2'
13 '-z+1/2, y+1/2, x+1/2'
14 '-y+1/2, x+1/2, z+1/2'
15 '-x+1/2, z+1/2, y+1/2'
16 'z+1/2, -y+1/2, -x+1/2'
17 'y+1/2, -x+1/2, -z+1/2'
18 'x+1/2, -z+1/2, -y+1/2'
19 '-z+1/2, -y+1/2, -x+1/2'
20 '-y+1/2, -x+1/2, -z+1/2'
21 '-x+1/2, -z+1/2, -y+1/2'
22 'z+1/2, y+1/2, x+1/2'
23 'y+1/2, x+1/2, z+1/2'
24 'x+1/2, z+1/2, y+1/2'
25 'z, x, -y'
26 'y, z, -x'
27 'x, y, -z'
28 '-z, -x, y'
29 '-y, -z, x'
30 '-x, -y, z'
31 'z, -x, y'
32 'y, -z, x'
33 'x, -y, z'
34 '-z, x, -y'
35 '-y, z, -x'
36 '-x, y, -z'
37 '-z, x, y'
38 '-y, z, x'
39 '-x, y, z'
40 'z, -x, -y'
41 'y, -z, -x'
42 'x, -y, -z'
43 '-z, -x, -y'
44 '-y, -z, -x'
45 '-x, -y, -z'
46 'z, x, y'
47 'y, z, x'
48 'x, y, z'
loop_
_atom_type_symbol
_atom_type_oxidation_number
Ba0+ 0
Sr0+ 0
Ba0+ 0
Al0+ 0
Si0+ 0
Al0+ 0
Si0+ 0
Al0+ 0
Si0+ 0
loop_
_atom_site_label
_atom_site_type_symbol
_atom_site_symmetry_multiplicity
_atom_site_Wyckoff_symbol
_atom_site_fract_x
_atom_site_fract_y
_atom_site_fract_z
_atom_site_U_iso_or_equiv
_atom_site_occupancy
Ba1 Ba0+ 2 a 0. 0. 0. 0.0072(4) 0.663(16)
Sr1 Sr0+ 2 a 0. 0. 0. 0.0072(4) 0.335(16)
Ba2 Ba0+ 6 d 0. 0.25 0.5 0.0228(3) 1
Al1 Al0+ 6 c 0.25 0. 0.5 0.0085(6) 0.55
Si1 Si0+ 6 c 0.25 0. 0.5 0.0085(6) 0.44
Al2 Al0+ 16 i 0.18495(9) 0.18495(9) 0.18495(9) 0.0077(4) 0.27
Si2 Si0+ 16 i 0.18495(9) 0.18495(9) 0.18495(9) 0.0077(4) 0.7
Al3 Al0+ 24 k 0.11747(13) 0. 0.30515(13) 0.0064(3) 0.27
Si3 Si0+ 24 k 0.11747(13) 0. 0.30515(13) 0.0064(3) 0.7
loop_
_atom_site_aniso_label
_atom_site_aniso_type_symbol
_atom_site_aniso_U_11
_atom_site_aniso_U_22
_atom_site_aniso_U_33
_atom_site_aniso_U_12
_atom_site_aniso_U_13
_atom_site_aniso_U_23
Ba1 Ba0+ 0.0072(4) 0.0072(4) 0.0072(4) 0. 0. 0.
Sr1 Sr0+ 0.0072(4) 0.0072(4) 0.0072(4) 0. 0. 0.
Ba2 Ba0+ 0.0289(3) 0.0107(4) 0.0289(3) 0. 0. 0.
Al1 Al0+ 0.0093(14) 0.0081(8) 0.0081(8) 0. 0. 0.
Si1 Si0+ 0.0093(14) 0.0081(8) 0.0081(8) 0. 0. 0.
Al2 Al0+ 0.0077(4) 0.0077(4) 0.0077(4) 0. 0. 0.
Si2 Si0+ 0.0077(4) 0.0077(4) 0.0077(4) 0. 0. 0.
Al3 Al0+ 0.0074(7) 0.0065(6) 0.0054(6) 0. 0. 0.
Si3 Si0+ 0.0074(7) 0.0065(6) 0.0054(6) 0. 0. 0.
#End of TTdata_249420-ICSD