
#(C) 2025 by FIZ Karlsruhe - Leibniz Institute for Information Infrastructure.  All rights reserved.
data_173169-ICSD
_database_code_ICSD 173169
_audit_creation_date 2008-08-01
_chemical_name_common 'Potassium silicon (6.95/46)'
_chemical_formula_structural 'K6.95 Si46'
_chemical_formula_sum 'K6.95 Si46'
_chemical_name_structure_type K8Si46
_exptl_crystal_density_diffrn 2.39
_citation_title 'Oxidation of M4 Si4 (N = Na, K) to clathrates by H Cl or H2 O'
loop_
_citation_id
_citation_journal_full
_citation_year
_citation_journal_volume
_citation_page_first
_citation_page_last
_citation_journal_id_ASTM
primary 'Journal of the American Chemical Society' 2007 129 5348 5349 JACSAT
loop_
_citation_author_citation_id
_citation_author_name
primary 'Boehme, B.'
primary 'Guloy, A.'
primary 'Tang Zhongjia'
primary 'Schnelle, W.'
primary 'Burkardt, U.'
primary 'Baitinger, M.'
primary "Grin', Yu. (Hrin', Yu."
primary ' Grin, Yu.'
primary ' Hrin, Yu.)'
_cell_length_a 10.278(1)
_cell_length_b 10.278(1)
_cell_length_c 10.278(1)
_cell_angle_alpha 90
_cell_angle_beta 90
_cell_angle_gamma 90
_cell_volume 1085.74
_cell_formula_units_Z 1
_space_group_name_H-M_alt 'P m -3 n'
_space_group_IT_number 223
loop_
_space_group_symop_id
_space_group_symop_operation_xyz
1 'z+1/2, -y+1/2, x+1/2'
2 'y+1/2, -x+1/2, z+1/2'
3 'x+1/2, -z+1/2, y+1/2'
4 '-z+1/2, y+1/2, -x+1/2'
5 '-y+1/2, x+1/2, -z+1/2'
6 '-x+1/2, z+1/2, -y+1/2'
7 'z+1/2, y+1/2, -x+1/2'
8 'y+1/2, x+1/2, -z+1/2'
9 'x+1/2, z+1/2, -y+1/2'
10 '-z+1/2, -y+1/2, x+1/2'
11 '-y+1/2, -x+1/2, z+1/2'
12 '-x+1/2, -z+1/2, y+1/2'
13 '-z+1/2, y+1/2, x+1/2'
14 '-y+1/2, x+1/2, z+1/2'
15 '-x+1/2, z+1/2, y+1/2'
16 'z+1/2, -y+1/2, -x+1/2'
17 'y+1/2, -x+1/2, -z+1/2'
18 'x+1/2, -z+1/2, -y+1/2'
19 '-z+1/2, -y+1/2, -x+1/2'
20 '-y+1/2, -x+1/2, -z+1/2'
21 '-x+1/2, -z+1/2, -y+1/2'
22 'z+1/2, y+1/2, x+1/2'
23 'y+1/2, x+1/2, z+1/2'
24 'x+1/2, z+1/2, y+1/2'
25 'z, x, -y'
26 'y, z, -x'
27 'x, y, -z'
28 '-z, -x, y'
29 '-y, -z, x'
30 '-x, -y, z'
31 'z, -x, y'
32 'y, -z, x'
33 'x, -y, z'
34 '-z, x, -y'
35 '-y, z, -x'
36 '-x, y, -z'
37 '-z, x, y'
38 '-y, z, x'
39 '-x, y, z'
40 'z, -x, -y'
41 'y, -z, -x'
42 'x, -y, -z'
43 '-z, -x, -y'
44 '-y, -z, -x'
45 '-x, -y, -z'
46 'z, x, y'
47 'y, z, x'
48 'x, y, z'
loop_
_atom_type_symbol
_atom_type_oxidation_number
K0+ 0
Si0+ 0
loop_
_atom_site_label
_atom_site_type_symbol
_atom_site_symmetry_multiplicity
_atom_site_Wyckoff_symbol
_atom_site_fract_x
_atom_site_fract_y
_atom_site_fract_z
_atom_site_U_iso_or_equiv
_atom_site_occupancy
K1 K0+ 2 a 0 0 0 0.050(3) 0.803(13)
K2 K0+ 6 d 0.25 0.5 0 0.042(3) 0.891(7)
Si1 Si0+ 6 c 0.25 0 0.5 0.053(4) 1.
Si2 Si0+ 16 i 0.1842(3) 0.1842(3) 0.1842(3) 0.0578(12) 1.
Si3 Si0+ 24 k 0 0.3061(4) 0.1180(4) 0.048(2) 1.
loop_
_atom_site_aniso_label
_atom_site_aniso_type_symbol
_atom_site_aniso_U_11
_atom_site_aniso_U_22
_atom_site_aniso_U_33
_atom_site_aniso_U_12
_atom_site_aniso_U_13
_atom_site_aniso_U_23
K1 K0+ 0.050(5) 0.050(5) 0.050(5) 0 0 0
K2 K0+ 0.042(6) 0.042(4) 0.042(4) 0 0 0
Si1 Si0+ 0.050(8) 0.055(5) 0.055(5) 0 0 0
Si2 Si0+ 0.058(2) 0.058(2) 0.058(2) 0.010(3) 0.010(3) 0.010(3)
Si3 Si0+ 0.041(4) 0.056(4) 0.047(4) 0 0 0.009(3)
#End of TTdata_173169-ICSD