
#(C) 2025 by FIZ Karlsruhe - Leibniz Institute for Information Infrastructure.  All rights reserved.
data_170289-ICSD
_database_code_ICSD 170289
_audit_creation_date 2006-04-01
_chemical_name_common 'Tin phosphide bromide iodide (24/19.2/2.35/5.35)'
_chemical_formula_structural 'Sn24 P19.20 Br2.35 I5.65'
_chemical_formula_sum 'Br2.35 I5.65 P19.2 Sn24'
_chemical_name_structure_type K8Si46
_exptl_crystal_density_diffrn 5.54
_citation_title

;
Unusually chemical compressibility of normally rigid type-I clathrate
framework: synthesis and structural study of Sn24 P19.3 Br() I(8-x) solid
solution, the perspective thermoelectric material
;
loop_
_citation_id
_citation_journal_full
_citation_year
_citation_journal_volume
_citation_page_first
_citation_page_last
_citation_journal_id_ASTM
primary 'Inorganic Chemistry' 2004 43 3230 3236 INOCAJ
loop_
_citation_author_citation_id
_citation_author_name
primary 'Kovnir, K.A.'
primary 'Zaikina, J.V.'
primary 'Reshetova, L.N.'
primary 'Olenev, A.V.'
primary 'Dikarev, E.V.'
primary 'Shevelkov, A.V.'
_cell_length_a 10.9200(10)
_cell_length_b 10.9200(10)
_cell_length_c 10.9200(10)
_cell_angle_alpha 90.
_cell_angle_beta 90.
_cell_angle_gamma 90.
_cell_volume 1302.17
_cell_formula_units_Z 1
_space_group_name_H-M_alt 'P m -3 n'
_space_group_IT_number 223
loop_
_space_group_symop_id
_space_group_symop_operation_xyz
1 'z+1/2, -y+1/2, x+1/2'
2 'y+1/2, -x+1/2, z+1/2'
3 'x+1/2, -z+1/2, y+1/2'
4 '-z+1/2, y+1/2, -x+1/2'
5 '-y+1/2, x+1/2, -z+1/2'
6 '-x+1/2, z+1/2, -y+1/2'
7 'z+1/2, y+1/2, -x+1/2'
8 'y+1/2, x+1/2, -z+1/2'
9 'x+1/2, z+1/2, -y+1/2'
10 '-z+1/2, -y+1/2, x+1/2'
11 '-y+1/2, -x+1/2, z+1/2'
12 '-x+1/2, -z+1/2, y+1/2'
13 '-z+1/2, y+1/2, x+1/2'
14 '-y+1/2, x+1/2, z+1/2'
15 '-x+1/2, z+1/2, y+1/2'
16 'z+1/2, -y+1/2, -x+1/2'
17 'y+1/2, -x+1/2, -z+1/2'
18 'x+1/2, -z+1/2, -y+1/2'
19 '-z+1/2, -y+1/2, -x+1/2'
20 '-y+1/2, -x+1/2, -z+1/2'
21 '-x+1/2, -z+1/2, -y+1/2'
22 'z+1/2, y+1/2, x+1/2'
23 'y+1/2, x+1/2, z+1/2'
24 'x+1/2, z+1/2, y+1/2'
25 'z, x, -y'
26 'y, z, -x'
27 'x, y, -z'
28 '-z, -x, y'
29 '-y, -z, x'
30 '-x, -y, z'
31 'z, -x, y'
32 'y, -z, x'
33 'x, -y, z'
34 '-z, x, -y'
35 '-y, z, -x'
36 '-x, y, -z'
37 '-z, x, y'
38 '-y, z, x'
39 '-x, y, z'
40 'z, -x, -y'
41 'y, -z, -x'
42 'x, -y, -z'
43 '-z, -x, -y'
44 '-y, -z, -x'
45 '-x, -y, -z'
46 'z, x, y'
47 'y, z, x'
48 'x, y, z'
loop_
_atom_type_symbol
_atom_type_oxidation_number
Br0+ 0
I0+ 0
Br0+ 0
Sn0+ 0
P0+ 0
loop_
_atom_site_label
_atom_site_type_symbol
_atom_site_symmetry_multiplicity
_atom_site_Wyckoff_symbol
_atom_site_fract_x
_atom_site_fract_y
_atom_site_fract_z
_atom_site_U_iso_or_equiv
_atom_site_occupancy
Br1 Br0+ 2 a 0. 0. 0. 0.0164(6) 0.359(19)
I1 I0+ 2 a 0. 0. 0. 0.0164(6) 0.641(19)
I2 I0+ 6 d 0.5 0. 0.25 0.0189(3) 0.728(4)
Br2 Br0+ 6 d 0.5 0. 0.25 0.0189(3) 0.27
Sn1 Sn0+ 24 k 0.3083(3) 0.1123(4) 0. 0.0133(6) 0.526(11)
Sn2 Sn0+ 24 k 0.3425(4) 0.1527(4) 0. 0.0152(7) 0.474(11)
P1 P0+ 16 i 0.19163(10) 0.19163(10) 0.19163(10) 0.0103(4) 1
P2 P0+ 6 c 0.5 0.25 0. 0.0099(17) 0.526(11)
loop_
_atom_site_aniso_label
_atom_site_aniso_type_symbol
_atom_site_aniso_U_11
_atom_site_aniso_U_22
_atom_site_aniso_U_33
_atom_site_aniso_U_12
_atom_site_aniso_U_13
_atom_site_aniso_U_23
Br1 Br0+ 0.0164(6) 0.0164(6) 0.0164(6) 0. 0. 0.
I1 I0+ 0.0164(6) 0.0164(6) 0.0164(6) 0. 0. 0.
I2 I0+ 0.0218(4) 0.0218(4) 0.0131(5) 0. 0. 0.
Br2 Br0+ 0.0218(4) 0.0218(4) 0.0131(5) 0. 0. 0.
Sn1 Sn0+ 0.0147(8) 0.0129(11) 0.0122(5) -0.0010(8) 0. 0.
Sn2 Sn0+ 0.0193(11) 0.0127(12) 0.0137(5) -0.0015(10) 0. 0.
P1 P0+ 0.0103(4) 0.0103(4) 0.0103(4) -0.0002(4) -0.0002(4) -0.0002(4)
P2 P0+ 0.009(2) 0.011(3) 0.009(2) 0. 0. 0.
#End of TTdata_170289-ICSD