
#(C) 2025 by FIZ Karlsruhe - Leibniz Institute for Information Infrastructure.  All rights reserved.
data_419210-ICSD
_database_code_ICSD 419210
_audit_creation_date 2011-02-01
_chemical_name_common 'Tin arsenide phosphide iodide (24/7.81/11.32/8)'
_chemical_formula_structural 'Sn24 (As7.81 P11.32) I8'
_chemical_formula_sum 'As7.81 I8 P11.32 Sn24'
_chemical_name_structure_type K8Si46
_exptl_crystal_density_diffrn 5.9
_diffrn_ambient_temperature 173.
_citation_title

;
Distribution of phosphorus and arsenic atoms in the solid solution Sn24 Asx
P19.3-x I8 with the structure of clathrate-I
;
loop_
_citation_id
_citation_journal_full
_citation_year
_citation_journal_volume
_citation_page_first
_citation_page_last
_citation_journal_id_ASTM
primary 'Izvestiya Akademi Nauk, Seriya Khimicheskaya' 2009 2009 730 734 IASKEA
loop_
_citation_author_citation_id
_citation_author_name
primary 'Kelm, E.A.'
primary 'Zaikina, Yu. V.'
primary 'Dikarev, E.V.'
primary 'Shevelkov, A.V.'
_cell_length_a 11.0532(3)
_cell_length_b 11.0532(3)
_cell_length_c 11.0532(3)
_cell_angle_alpha 90.
_cell_angle_beta 90.
_cell_angle_gamma 90.
_cell_volume 1350.41
_cell_formula_units_Z 1
_space_group_name_H-M_alt 'P m -3 n'
_space_group_IT_number 223
loop_
_space_group_symop_id
_space_group_symop_operation_xyz
1 'z+1/2, -y+1/2, x+1/2'
2 'y+1/2, -x+1/2, z+1/2'
3 'x+1/2, -z+1/2, y+1/2'
4 '-z+1/2, y+1/2, -x+1/2'
5 '-y+1/2, x+1/2, -z+1/2'
6 '-x+1/2, z+1/2, -y+1/2'
7 'z+1/2, y+1/2, -x+1/2'
8 'y+1/2, x+1/2, -z+1/2'
9 'x+1/2, z+1/2, -y+1/2'
10 '-z+1/2, -y+1/2, x+1/2'
11 '-y+1/2, -x+1/2, z+1/2'
12 '-x+1/2, -z+1/2, y+1/2'
13 '-z+1/2, y+1/2, x+1/2'
14 '-y+1/2, x+1/2, z+1/2'
15 '-x+1/2, z+1/2, y+1/2'
16 'z+1/2, -y+1/2, -x+1/2'
17 'y+1/2, -x+1/2, -z+1/2'
18 'x+1/2, -z+1/2, -y+1/2'
19 '-z+1/2, -y+1/2, -x+1/2'
20 '-y+1/2, -x+1/2, -z+1/2'
21 '-x+1/2, -z+1/2, -y+1/2'
22 'z+1/2, y+1/2, x+1/2'
23 'y+1/2, x+1/2, z+1/2'
24 'x+1/2, z+1/2, y+1/2'
25 'z, x, -y'
26 'y, z, -x'
27 'x, y, -z'
28 '-z, -x, y'
29 '-y, -z, x'
30 '-x, -y, z'
31 'z, -x, y'
32 'y, -z, x'
33 'x, -y, z'
34 '-z, x, -y'
35 '-y, z, -x'
36 '-x, y, -z'
37 '-z, x, y'
38 '-y, z, x'
39 '-x, y, z'
40 'z, -x, -y'
41 'y, -z, -x'
42 'x, -y, -z'
43 '-z, -x, -y'
44 '-y, -z, -x'
45 '-x, -y, -z'
46 'z, x, y'
47 'y, z, x'
48 'x, y, z'
loop_
_atom_type_symbol
_atom_type_oxidation_number
I0+ 0
As0+ 0
P0+ 0
As0+ 0
P0+ 0
Sn0+ 0
loop_
_atom_site_label
_atom_site_type_symbol
_atom_site_symmetry_multiplicity
_atom_site_Wyckoff_symbol
_atom_site_fract_x
_atom_site_fract_y
_atom_site_fract_z
_atom_site_U_iso_or_equiv
_atom_site_occupancy
I1 I0+ 2 a 0. 0. 0. 0.0112(4) 1
I2 I0+ 6 d 0. 0.25 0.5 0.0141(3) 1
As1 As0+ 16 i 0.18945(7) 0.18945(7) 0.18945(7) 0.0095(4) 0.389(4)
P1 P0+ 16 i 0.18945(7) 0.18945(7) 0.18945(7) 0.0095(4) 0.611(4)
As2 As0+ 6 c 0.25 0. 0.5 0.0112(13) 0.264(17)
P2 P0+ 6 c 0.25 0. 0.5 0.0112(13) 0.26(3)
Sn1 Sn0+ 24 k 0.3081(4) 0.1107(5) 0. 0.0125(8) 0.522(15)
Sn2 Sn0+ 24 k 0.1512(6) 0. 0.3438(6) 0.0144(9) 0.478(15)
loop_
_atom_site_aniso_label
_atom_site_aniso_type_symbol
_atom_site_aniso_U_11
_atom_site_aniso_U_22
_atom_site_aniso_U_33
_atom_site_aniso_U_12
_atom_site_aniso_U_13
_atom_site_aniso_U_23
I1 I0+ 0.0112(4) 0.0112(4) 0.0112(4) 0. 0. 0.
I2 I0+ 0.0158(3) 0.0106(5) 0.0158(3) 0. 0. 0.
As1 As0+ 0.0095(4) 0.0095(4) 0.0095(4) -0.0002(3) -0.0002(3) -0.0002(3)
P1 P0+ 0.0095(4) 0.0095(4) 0.0095(4) -0.0002(3) -0.0002(3) -0.0002(3)
As2 As0+ 0.014(2) 0.0097(16) 0.0097(16) 0. 0. 0.
P2 P0+ 0.014(2) 0.0097(16) 0.0097(16) 0. 0. 0.
Sn1 Sn0+ 0.0126(11) 0.0124(14) 0.0124(5) -0.0017(11) 0. 0.
Sn2 Sn0+ 0.0129(16) 0.0123(6) 0.0179(14) 0. -0.0009(14) 0.
#End of TTdata_419210-ICSD