
#(C) 2025 by FIZ Karlsruhe - Leibniz Institute for Information Infrastructure.  All rights reserved.
data_417970-ICSD
_database_code_ICSD 417970
_audit_creation_date 2008-08-01
_chemical_name_common 'Cesium tin (8/44)'
_chemical_formula_structural 'Cs8 Sn44'
_chemical_formula_sum 'Cs8 Sn44'
_chemical_name_structure_type K8Si46
_exptl_crystal_density_diffrn 5.84
_diffrn_ambient_temperature 373.
_citation_title
'Order-disorder phase transition in type-I clathrate Cs8 Sn44 (vac)2'
loop_
_citation_id
_citation_journal_full
_citation_year
_citation_journal_volume
_citation_page_first
_citation_page_last
_citation_journal_id_ASTM
primary 'European Journal of Inorganic Chemistry' 2007 2007 4162 4167 EJICFO
loop_
_citation_author_citation_id
_citation_author_name
primary 'Kaltzoglou, A.'
primary 'Hoffmann, S.D.'
primary 'Faessler, T.F.'
_cell_length_a 12.1353(14)
_cell_length_b 12.1353(14)
_cell_length_c 12.1353(14)
_cell_angle_alpha 90.
_cell_angle_beta 90.
_cell_angle_gamma 90.
_cell_volume 1787.11
_cell_formula_units_Z 1
_space_group_name_H-M_alt 'P m -3 n'
_space_group_IT_number 223
loop_
_space_group_symop_id
_space_group_symop_operation_xyz
1 'z+1/2, -y+1/2, x+1/2'
2 'y+1/2, -x+1/2, z+1/2'
3 'x+1/2, -z+1/2, y+1/2'
4 '-z+1/2, y+1/2, -x+1/2'
5 '-y+1/2, x+1/2, -z+1/2'
6 '-x+1/2, z+1/2, -y+1/2'
7 'z+1/2, y+1/2, -x+1/2'
8 'y+1/2, x+1/2, -z+1/2'
9 'x+1/2, z+1/2, -y+1/2'
10 '-z+1/2, -y+1/2, x+1/2'
11 '-y+1/2, -x+1/2, z+1/2'
12 '-x+1/2, -z+1/2, y+1/2'
13 '-z+1/2, y+1/2, x+1/2'
14 '-y+1/2, x+1/2, z+1/2'
15 '-x+1/2, z+1/2, y+1/2'
16 'z+1/2, -y+1/2, -x+1/2'
17 'y+1/2, -x+1/2, -z+1/2'
18 'x+1/2, -z+1/2, -y+1/2'
19 '-z+1/2, -y+1/2, -x+1/2'
20 '-y+1/2, -x+1/2, -z+1/2'
21 '-x+1/2, -z+1/2, -y+1/2'
22 'z+1/2, y+1/2, x+1/2'
23 'y+1/2, x+1/2, z+1/2'
24 'x+1/2, z+1/2, y+1/2'
25 'z, x, -y'
26 'y, z, -x'
27 'x, y, -z'
28 '-z, -x, y'
29 '-y, -z, x'
30 '-x, -y, z'
31 'z, -x, y'
32 'y, -z, x'
33 'x, -y, z'
34 '-z, x, -y'
35 '-y, z, -x'
36 '-x, y, -z'
37 '-z, x, y'
38 '-y, z, x'
39 '-x, y, z'
40 'z, -x, -y'
41 'y, -z, -x'
42 'x, -y, -z'
43 '-z, -x, -y'
44 '-y, -z, -x'
45 '-x, -y, -z'
46 'z, x, y'
47 'y, z, x'
48 'x, y, z'
loop_
_atom_type_symbol
_atom_type_oxidation_number
Cs0+ 0
Sn0+ 0
loop_
_atom_site_label
_atom_site_type_symbol
_atom_site_symmetry_multiplicity
_atom_site_Wyckoff_symbol
_atom_site_fract_x
_atom_site_fract_y
_atom_site_fract_z
_atom_site_U_iso_or_equiv
_atom_site_occupancy
Cs1 Cs0+ 2 a 0. 0. 0. 0.0223(5) 1
Cs2 Cs0+ 6 d 0.25 0.5 0. 0.0478(6) 1
Sn1 Sn0+ 16 i 0.18314(4) 0.18314(4) 0.18314(4) 0.0259(3) 1
Sn2 Sn0+ 6 c 0.25 0. 0.5 0.0197(9) 0.687(7)
Sn3 Sn0+ 24 k 0. 0.3064(2) 0.1136(3) 0.0233(5) 0.687(7)
Sn4 Sn0+ 24 k 0. 0.3447(6) 0.1344(6) 0.0251(14) 0.313(7)
loop_
_atom_site_aniso_label
_atom_site_aniso_type_symbol
_atom_site_aniso_U_11
_atom_site_aniso_U_22
_atom_site_aniso_U_33
_atom_site_aniso_U_12
_atom_site_aniso_U_13
_atom_site_aniso_U_23
Cs1 Cs0+ 0.0223(5) 0.0223(5) 0.0223(5) 0. 0. 0.
Cs2 Cs0+ 0.0278(10) 0.0577(8) 0.0577(8) 0. 0. 0.
Sn1 Sn0+ 0.0259(3) 0.0259(3) 0.0259(3) -0.00450(19) -0.00450(19) -0.00450(19)
Sn2 Sn0+ 0.0199(14) 0.0197(10) 0.0197(10) 0. 0. 0.
Sn3 Sn0+ 0.0227(7) 0.0225(13) 0.0246(11) 0. 0. -0.0031(9)
Sn4 Sn0+ 0.0222(16) 0.032(4) 0.021(3) 0. 0. 0.000(2)
#End of TTdata_417970-ICSD