
#(C) 2025 by FIZ Karlsruhe - Leibniz Institute for Information Infrastructure.  All rights reserved.
data_191350-ICSD
_database_code_ICSD 191350
_audit_creation_date 2014-08-01
_chemical_name_common 'Barium gold gallium germanium (8/1/13/32)'
_chemical_formula_structural 'Ba8 Au Ga13 Ge32'
_chemical_formula_sum 'Au1 Ba8 Ga13 Ge32'
_chemical_name_structure_type K8Si46
_exptl_crystal_density_diffrn 5.98
_diffrn_ambient_temperature 293.
_citation_title

;
Thermoelectric properties of Au-containing type-I clathrates Ba8 Aux Ga16-3x
Ge30+2x
;
loop_
_citation_id
_citation_journal_full
_citation_year
_citation_journal_volume
_citation_page_first
_citation_page_last
_citation_journal_id_ASTM
primary 'Journal of Alloys and Compounds' 2014 587 747 754 JALCEU
loop_
_citation_author_citation_id
_citation_author_name
primary 'Ye, Zuxin'
primary 'Cho, Jung Young'
primary 'Tessema, Misle M.'
primary 'Salvador, James R.'
primary 'Waldo, Richard A.'
primary 'Yang, Jihui'
primary 'Wang, Hsin'
primary 'Cai, W.'
primary 'Kirkham, M.J.'
primary 'Yang, Jiong'
primary 'Zhan, Wenqing'
_cell_length_a 10.7908(1)
_cell_length_b 10.7908(1)
_cell_length_c 10.7908(1)
_cell_angle_alpha 90.
_cell_angle_beta 90.
_cell_angle_gamma 90.
_cell_volume 1256.5
_cell_formula_units_Z 1
_space_group_name_H-M_alt 'P m -3 n'
_space_group_IT_number 223
loop_
_space_group_symop_id
_space_group_symop_operation_xyz
1 'z+1/2, -y+1/2, x+1/2'
2 'y+1/2, -x+1/2, z+1/2'
3 'x+1/2, -z+1/2, y+1/2'
4 '-z+1/2, y+1/2, -x+1/2'
5 '-y+1/2, x+1/2, -z+1/2'
6 '-x+1/2, z+1/2, -y+1/2'
7 'z+1/2, y+1/2, -x+1/2'
8 'y+1/2, x+1/2, -z+1/2'
9 'x+1/2, z+1/2, -y+1/2'
10 '-z+1/2, -y+1/2, x+1/2'
11 '-y+1/2, -x+1/2, z+1/2'
12 '-x+1/2, -z+1/2, y+1/2'
13 '-z+1/2, y+1/2, x+1/2'
14 '-y+1/2, x+1/2, z+1/2'
15 '-x+1/2, z+1/2, y+1/2'
16 'z+1/2, -y+1/2, -x+1/2'
17 'y+1/2, -x+1/2, -z+1/2'
18 'x+1/2, -z+1/2, -y+1/2'
19 '-z+1/2, -y+1/2, -x+1/2'
20 '-y+1/2, -x+1/2, -z+1/2'
21 '-x+1/2, -z+1/2, -y+1/2'
22 'z+1/2, y+1/2, x+1/2'
23 'y+1/2, x+1/2, z+1/2'
24 'x+1/2, z+1/2, y+1/2'
25 'z, x, -y'
26 'y, z, -x'
27 'x, y, -z'
28 '-z, -x, y'
29 '-y, -z, x'
30 '-x, -y, z'
31 'z, -x, y'
32 'y, -z, x'
33 'x, -y, z'
34 '-z, x, -y'
35 '-y, z, -x'
36 '-x, y, -z'
37 '-z, x, y'
38 '-y, z, x'
39 '-x, y, z'
40 'z, -x, -y'
41 'y, -z, -x'
42 'x, -y, -z'
43 '-z, -x, -y'
44 '-y, -z, -x'
45 '-x, -y, -z'
46 'z, x, y'
47 'y, z, x'
48 'x, y, z'
loop_
_atom_type_symbol
_atom_type_oxidation_number
Ba0+ 0
Au0+ 0
Ga0+ 0
Ge0+ 0
Ga0+ 0
Ge0+ 0
Ga0+ 0
Ge0+ 0
loop_
_atom_site_label
_atom_site_type_symbol
_atom_site_symmetry_multiplicity
_atom_site_Wyckoff_symbol
_atom_site_fract_x
_atom_site_fract_y
_atom_site_fract_z
_atom_site_U_iso_or_equiv
_atom_site_occupancy
Ba1 Ba0+ 2 a 0 0 0 0.00146 1.
Ba2 Ba0+ 6 d 0.25 0.5 0 0.0414(14) 1.
Au1 Au0+ 6 c 0.25 0 0.5 0.0189(15) 0.167
Ga1 Ga0+ 6 c 0.25 0 0.5 0.0189(15) 0.241
Ge1 Ge0+ 6 c 0.25 0 0.5 0.0189(15) 0.592
Ga2 Ga0+ 16 i 0.18284(14) 0.18284(14) 0.18284(14) 0.0030(9) 0.289
Ge2 Ge0+ 16 i 0.18284(14) 0.18284(14) 0.18284(14) 0.0030(9) 0.711
Ga3 Ga0+ 24 k 0 0.3074(2) 0.12055(19) 0.0027(7) 0.289
Ge3 Ge0+ 24 k 0 0.3074(2) 0.12055(19) 0.0027(7) 0.711
#End of TTdata_191350-ICSD