
#(C) 2025 by FIZ Karlsruhe - Leibniz Institute for Information Infrastructure.  All rights reserved.
data_179570-ICSD
_database_code_ICSD 179570
_audit_creation_date 2025-02-01
_chemical_name_common 'Cesium zinc germanium (8/4/42)'
_chemical_formula_structural 'Cs7.7 Zn4 Ge42'
_chemical_formula_sum 'Cs7.7 Ge42 Zn4'
_chemical_name_structure_type K8Si46
_exptl_crystal_density_diffrn 5.63
_citation_title

;
Preparation, electronic structures, and thermoelectric properties of
X$_8$Zn$_4$Ge$_{42}$ (X = Na, K, Cs) clathrates
;
loop_
_citation_id
_citation_journal_full
_citation_year
_citation_journal_volume
_citation_page_first
_citation_page_last
_citation_journal_id_ASTM
primary 'Journal of Solid State Chemistry' 2024 338 '' '' JSSCBI
loop_
_citation_author_citation_id
_citation_author_name
primary 'Kishimoto, Kengo'
primary 'Tachikake, Tetsuya'
primary 'Senda, Yasuhiro'
primary 'Akai, Koji'
_cell_length_a 10.8527(4)
_cell_length_b 10.8527(4)
_cell_length_c 10.8527(4)
_cell_angle_alpha 90.
_cell_angle_beta 90.
_cell_angle_gamma 90.
_cell_volume 1278.24
_cell_formula_units_Z 1
_space_group_name_H-M_alt 'P m -3 n'
_space_group_IT_number 223
loop_
_space_group_symop_id
_space_group_symop_operation_xyz
1 'z+1/2, -y+1/2, x+1/2'
2 'y+1/2, -x+1/2, z+1/2'
3 'x+1/2, -z+1/2, y+1/2'
4 '-z+1/2, y+1/2, -x+1/2'
5 '-y+1/2, x+1/2, -z+1/2'
6 '-x+1/2, z+1/2, -y+1/2'
7 'z+1/2, y+1/2, -x+1/2'
8 'y+1/2, x+1/2, -z+1/2'
9 'x+1/2, z+1/2, -y+1/2'
10 '-z+1/2, -y+1/2, x+1/2'
11 '-y+1/2, -x+1/2, z+1/2'
12 '-x+1/2, -z+1/2, y+1/2'
13 '-z+1/2, y+1/2, x+1/2'
14 '-y+1/2, x+1/2, z+1/2'
15 '-x+1/2, z+1/2, y+1/2'
16 'z+1/2, -y+1/2, -x+1/2'
17 'y+1/2, -x+1/2, -z+1/2'
18 'x+1/2, -z+1/2, -y+1/2'
19 '-z+1/2, -y+1/2, -x+1/2'
20 '-y+1/2, -x+1/2, -z+1/2'
21 '-x+1/2, -z+1/2, -y+1/2'
22 'z+1/2, y+1/2, x+1/2'
23 'y+1/2, x+1/2, z+1/2'
24 'x+1/2, z+1/2, y+1/2'
25 'z, x, -y'
26 'y, z, -x'
27 'x, y, -z'
28 '-z, -x, y'
29 '-y, -z, x'
30 '-x, -y, z'
31 'z, -x, y'
32 'y, -z, x'
33 'x, -y, z'
34 '-z, x, -y'
35 '-y, z, -x'
36 '-x, y, -z'
37 '-z, x, y'
38 '-y, z, x'
39 '-x, y, z'
40 'z, -x, -y'
41 'y, -z, -x'
42 'x, -y, -z'
43 '-z, -x, -y'
44 '-y, -z, -x'
45 '-x, -y, -z'
46 'z, x, y'
47 'y, z, x'
48 'x, y, z'
loop_
_atom_type_symbol
_atom_type_oxidation_number
Cs0+ 0
Zn0+ 0
Ge0+ 0
loop_
_atom_site_label
_atom_site_type_symbol
_atom_site_symmetry_multiplicity
_atom_site_Wyckoff_symbol
_atom_site_fract_x
_atom_site_fract_y
_atom_site_fract_z
_atom_site_U_iso_or_equiv
_atom_site_occupancy
Cs1 Cs0+ 2 a 0 0 0 0.004(1) 0.837(7)
Cs2 Cs0+ 24 k 0.234(3) 0.5 0.033(2) 0.0166(7) 0.25
Zn1 Zn0+ 6 c 0.25 0 0.5 0.008(1) 0.667
Ge1 Ge0+ 6 c 0.25 0 0.5 0.008(1) 0.333
Ge2 Ge0+ 16 i 0.1840(1) 0.1840(1) 0.1840(1) 0.0076(6) 1.
Ge3 Ge0+ 24 k 0 0.3077(2) 0.1190(2) 0.0085(5) 1.
#End of TTdata_179570-ICSD