data_global
_chemical_name_mineral 'Ferrocolumbite'
loop_
_publ_author_name
'Tarantino S C'
'Zema M'
_journal_name_full 'American Mineralogist'
_journal_volume 90 
_journal_year 2005
_journal_page_first 1291
_journal_page_last 1300
_publ_section_title
;
 Mixing and ordering behavior in manganocolumbite-ferrocolumbite solid solution:
 A single-crystal X-ray diffraction study
 Sample: BRA n18 Qm=0.898 from S. Jose de Safira, Minas Gerais, Brazil
 Sample: Annealed at T = 800 C for t = 7 m
 Note: Occupancies calculated assuming complete Fe/Mn disorder
;
_database_code_amcsd 0003836
_chemical_formula_sum 'Fe.791 Mn.209 Nb1.9 Ta.1 O6'
_cell_length_a 14.2733
_cell_length_b 5.7317
_cell_length_c 5.0646
_cell_angle_alpha 90
_cell_angle_beta 90
_cell_angle_gamma 90
_cell_volume 414.336
_exptl_crystal_density_diffrn      5.551
_symmetry_space_group_name_H-M 'P b c n'
loop_
_space_group_symop_operation_xyz
  'x,y,z'
  'x,-y,1/2+z'
  '-x,y,1/2-z'
  '1/2-x,1/2+y,z'
  '1/2+x,1/2-y,-z'
  '1/2+x,1/2+y,1/2-z'
  '1/2-x,1/2-y,1/2+z'
  '-x,-y,-z'
loop_
_atom_site_label
_atom_site_fract_x
_atom_site_fract_y
_atom_site_fract_z
_atom_site_occupancy
_atom_site_U_iso_or_equiv
FeA   0.00000   0.32901   0.25000   0.73700   0.00590
MnA   0.00000   0.32901   0.25000   0.19500   0.00590
NbA   0.00000   0.32901   0.25000   0.06800   0.00590
NbB   0.16198   0.17932   0.74781   0.91600   0.00450
TaB   0.16198   0.17932   0.74781   0.05000   0.00450
FeB   0.16198   0.17932   0.74781   0.02700   0.00450
MnB   0.16198   0.17932   0.74781   0.00700   0.00450
O1   0.09620   0.10423   0.07020   1.00000   0.00700
O2   0.41902   0.11657   0.09660   1.00000   0.00810
O3   0.75607   0.12332   0.08200   1.00000   0.00660
