
#(C) 2024 by FIZ Karlsruhe - Leibniz Institute for Information Infrastructure.  All rights reserved.
data_161430-ICSD
_database_code_ICSD 161430
_audit_creation_date 2009-02-01
_chemical_name_common
'Calcium sodium stannate niobate (0.105/0.895/0.105/0.895)'
_chemical_formula_structural '(Ca0.105 Na0.895) ((Sn0.105 Nb0.895) O3)'
_chemical_formula_sum 'Ca0.105 Na0.895 Nb0.895 O3 Sn0.105'
_chemical_name_structure_type Perovskite#CaTiO3
_exptl_crystal_density_diffrn 4.71
_diffrn_ambient_temperature 293.
_citation_title

;
X-ray diffraction, dielectric measurements and Raman sppectroscopy. Studies of
the (1-x)(Ca Sn O3) - x(Na Nb O3) solid solution
;
loop_
_citation_id
_citation_journal_full
_citation_year
_citation_journal_volume
_citation_page_first
_citation_page_last
_citation_journal_id_ASTM
primary 'Journal of Alloys and Compounds' 2008 465 222 226 JALCEU
loop_
_citation_author_citation_id
_citation_author_name
primary 'Aydi, A.'
primary 'Chkoundali, S.'
primary 'Khemakhem, H.'
primary 'Simon, A.'
primary 'von der Muehll, R.'
_cell_length_a 3.9019
_cell_length_b 3.9019
_cell_length_c 3.9019
_cell_angle_alpha 90.
_cell_angle_beta 90.
_cell_angle_gamma 90.
_cell_volume 59.41
_cell_formula_units_Z 1
_space_group_name_H-M_alt 'P m -3 m'
_space_group_IT_number 221
loop_
_space_group_symop_id
_space_group_symop_operation_xyz
1 'z, y, -x'
2 'y, x, -z'
3 'x, z, -y'
4 'z, x, -y'
5 'y, z, -x'
6 'x, y, -z'
7 'z, -y, x'
8 'y, -x, z'
9 'x, -z, y'
10 'z, -x, y'
11 'y, -z, x'
12 'x, -y, z'
13 '-z, y, x'
14 '-y, x, z'
15 '-x, z, y'
16 '-z, x, y'
17 '-y, z, x'
18 '-x, y, z'
19 '-z, -y, -x'
20 '-y, -x, -z'
21 '-x, -z, -y'
22 '-z, -x, -y'
23 '-y, -z, -x'
24 '-x, -y, -z'
25 '-z, -y, x'
26 '-y, -x, z'
27 '-x, -z, y'
28 '-z, -x, y'
29 '-y, -z, x'
30 '-x, -y, z'
31 '-z, y, -x'
32 '-y, x, -z'
33 '-x, z, -y'
34 '-z, x, -y'
35 '-y, z, -x'
36 '-x, y, -z'
37 'z, -y, -x'
38 'y, -x, -z'
39 'x, -z, -y'
40 'z, -x, -y'
41 'y, -z, -x'
42 'x, -y, -z'
43 'z, y, x'
44 'y, x, z'
45 'x, z, y'
46 'z, x, y'
47 'y, z, x'
48 'x, y, z'
loop_
_atom_type_symbol
_atom_type_oxidation_number
Ca2+ 2
Na1+ 1
Sn4+ 4
Nb5+ 5
O2- -2
loop_
_atom_site_label
_atom_site_type_symbol
_atom_site_symmetry_multiplicity
_atom_site_Wyckoff_symbol
_atom_site_fract_x
_atom_site_fract_y
_atom_site_fract_z
_atom_site_B_iso_or_equiv
_atom_site_occupancy
Ca1 Ca2+ 1 b 0.5 0.5 0.5 0.8 0.105
Na1 Na1+ 1 b 0.5 0.5 0.5 0.8 0.895
Sn1 Sn4+ 1 a 0 0 0 0.4 0.105
Nb1 Nb5+ 1 a 0 0 0 0.4 0.895
O1 O2- 3 d 0.5 0 0 1. 1.
#End of TTdata_161430-ICSD