
#(C) 2024 by FIZ Karlsruhe - Leibniz Institute for Information Infrastructure.  All rights reserved.
data_125790-ICSD
_database_code_ICSD 125790
_audit_creation_date 2024-02-01
_chemical_name_common 'Nonairon decasulfide - Pyrrhotite 5C (strained)'
_chemical_formula_structural 'Fe9 S10'
_chemical_formula_sum 'Fe9 S10'
_exptl_crystal_density_diffrn 4.64
_citation_title 'Structure of pyrrhotite 5C (Fe$_9$S$_{10}$)'
loop_
_citation_id
_citation_journal_full
_citation_year
_citation_journal_volume
_citation_page_first
_citation_page_last
_citation_journal_id_ASTM
primary 'Acta Crystallographica, Section B: Structural Science' 2010 66 271 279
ASBSDK
loop_
_citation_author_citation_id
_citation_author_name
primary 'Elliot, Alexander Dean'
_cell_length_a 6.88904(35)
_cell_length_b 28.66859(55)
_cell_length_c 6.88286(32)
_cell_angle_alpha 90
_cell_angle_beta 119.8690(30)
_cell_angle_gamma 90
_cell_volume 1178.78
_cell_formula_units_Z 4
_space_group_name_H-M_alt 'P 1 21/c 1'
_space_group_IT_number 14
loop_
_space_group_symop_id
_space_group_symop_operation_xyz
1 'x, -y+1/2, z+1/2'
2 '-x, -y, -z'
3 '-x, y+1/2, -z+1/2'
4 'x, y, z'
loop_
_atom_type_symbol
_atom_type_oxidation_number
Fe0+ 0
S0+ 0
loop_
_atom_site_label
_atom_site_type_symbol
_atom_site_symmetry_multiplicity
_atom_site_Wyckoff_symbol
_atom_site_fract_x
_atom_site_fract_y
_atom_site_fract_z
_atom_site_B_iso_or_equiv
_atom_site_occupancy
Fe1 Fe0+ 4 e 0.25 0 0 1.864(10) 1
Fe2 Fe0+ 4 e 0.25 0.1 0 1.864(10) 0.5
Fe3 Fe0+ 4 e 0.25 0.2 0 1.864(10) 0.5
Fe4 Fe0+ 4 e 0.25 0.3 0 1.864(10) 1
Fe5 Fe0+ 4 e 0.25 0.4 0 1.864(10) 1
Fe6 Fe0+ 4 e 0.25 0.5 0 1.864(10) 1
Fe7 Fe0+ 4 e 0.25 0.6 0 1.864(10) 1
Fe8 Fe0+ 4 e 0.25 0.7 0 1.864(10) 1
Fe9 Fe0+ 4 e 0.25 0.8 0 1.864(10) 1
Fe10 Fe0+ 4 e 0.25 0.9 0 1.864(10) 1
S1 S0+ 4 e 0.9166667 0.05 0.3333333 0.695(10) 1
S2 S0+ 4 e 0.5833333 0.15 0.6666667 0.695(10) 1
S3 S0+ 4 e 0.9166667 0.25 0.3333333 0.695(10) 1
S4 S0+ 4 e 0.5833333 0.35 0.6666667 0.695(10) 1
S5 S0+ 4 e 0.9166667 0.45 0.3333333 0.695(10) 1
S6 S0+ 4 e 0.5833333 0.55 0.6666667 0.695(10) 1
S7 S0+ 4 e 0.9166667 0.65 0.3333333 0.695(10) 1
S8 S0+ 4 e 0.5833333 0.75 0.6666667 0.695(10) 1
S9 S0+ 4 e 0.9166667 0.85 0.3333333 0.695(10) 1
S10 S0+ 4 e 0.5833333 0.95 0.6666667 0.695(10) 1
#End of TTdata_125790-ICSD