
#(C) 2024 by FIZ Karlsruhe - Leibniz Institute for Information Infrastructure.  All rights reserved.
data_31668-ICSD
_database_code_ICSD 31668
_audit_creation_date 1986-09-30
_audit_update_record 2012-08-01
_chemical_name_common 'Zirconium fluoride'
_chemical_formula_structural 'Zr F4'
_chemical_formula_sum 'F4 Zr1'
_chemical_name_structure_type UF4
_exptl_crystal_density_diffrn 4.66
_citation_title

;
Crystal chemical studies of the 5f-series of elements. XII. New compounds
representing known structure types
;
loop_
_citation_id
_citation_journal_full
_citation_year
_citation_journal_volume
_citation_page_first
_citation_page_last
_citation_journal_id_ASTM
primary 'Acta Crystallographica' 1949 2 388 390 ACCRA9
loop_
_citation_author_citation_id
_citation_author_name
primary 'Zachariasen, W.H.'
_cell_length_a 11.71
_cell_length_b 9.89
_cell_length_c 7.65
_cell_angle_alpha 90.
_cell_angle_beta 126.15
_cell_angle_gamma 90.
_cell_volume 715.39
_cell_formula_units_Z 12
_space_group_name_H-M_alt 'C 1 2/c 1'
_space_group_IT_number 15
loop_
_space_group_symop_id
_space_group_symop_operation_xyz
1 'x, -y, z+1/2'
2 '-x, -y, -z'
3 '-x, y, -z+1/2'
4 'x, y, z'
5 'x+1/2, -y+1/2, z+1/2'
6 '-x+1/2, -y+1/2, -z'
7 '-x+1/2, y+1/2, -z+1/2'
8 'x+1/2, y+1/2, z'
loop_
_atom_type_symbol
_atom_type_oxidation_number
Zr4+ 4
F1- -1
loop_
_atom_site_label
_atom_site_type_symbol
_atom_site_symmetry_multiplicity
_atom_site_Wyckoff_symbol
_atom_site_fract_x
_atom_site_fract_y
_atom_site_fract_z
_atom_site_B_iso_or_equiv
_atom_site_occupancy
Zr1 Zr4+ 4 e 0 0.2 0.25 . 1.
Zr2 Zr4+ 8 f 0.208 0.437 -0.17 . 1.
#End of TTdata_31668-ICSD