
#(C) 2024 by FIZ Karlsruhe - Leibniz Institute for Information Infrastructure.  All rights reserved.
data_117137-ICSD
_database_code_ICSD 117137
_audit_creation_date 2023-02-01
_chemical_name_common 'Lithium aluminium silicon oxide (0.8/0.8/1.2/4)'
_chemical_formula_structural 'Li0.8 (Al0.8 Si1.2) O4'
_chemical_formula_sum 'Al0.8 Li0.8 O4 Si1.2'
_exptl_crystal_density_diffrn 2.38
_citation_title

;
Phase transitions induced by solid solution in stuffed derivatives of quartz:
A powder synchrotron XRD study of the LiAlSiO$_4$-SiO$_2$ join
;
loop_
_citation_id
_citation_journal_full
_citation_year
_citation_journal_volume
_citation_page_first
_citation_page_last
_citation_journal_id_ASTM
primary 'American Mineralogist' 2000 85 971 979 AMMIAY
loop_
_citation_author_citation_id
_citation_author_name
primary 'Xu, Hongwu'
primary 'Heaney, Peter J.'
primary 'Beall, George H.'
_cell_length_a 10.4949(2)
_cell_length_b 10.4949(2)
_cell_length_c 10.9650(3)
_cell_angle_alpha 90.
_cell_angle_beta 90.
_cell_angle_gamma 120.
_cell_volume 1045.91
_cell_formula_units_Z 12
_space_group_name_H-M_alt 'P 62 2 2'
_space_group_IT_number 180
loop_
_space_group_symop_id
_space_group_symop_operation_xyz
1 'x, x-y, -z+1/3'
2 '-x+y, y, -z'
3 '-y, -x, -z+2/3'
4 '-x, -x+y, -z+1/3'
5 'x-y, -y, -z'
6 'y, x, -z+2/3'
7 'x-y, x, z+1/3'
8 'y, -x+y, z+2/3'
9 '-x, -y, z'
10 '-x+y, -x, z+1/3'
11 '-y, x-y, z+2/3'
12 'x, y, z'
loop_
_atom_type_symbol
_atom_type_oxidation_number
Li1+ 1
Si4+ 4
Al3+ 3
Si4+ 4
Al3+ 3
Si4+ 4
O2- -2
loop_
_atom_site_label
_atom_site_type_symbol
_atom_site_symmetry_multiplicity
_atom_site_Wyckoff_symbol
_atom_site_fract_x
_atom_site_fract_y
_atom_site_fract_z
_atom_site_U_iso_or_equiv
_atom_site_occupancy
Li1 Li1+ 3 b 0 0 0.5 0.025(6) 0.8
Li2 Li1+ 3 c 0.5 0 0 0.025(6) 0.8
Li3 Li1+ 6 f 0.5 0 0.316(4) 0.025(6) 0.8
Si1 Si4+ 6 g 0.2504(8) 0 0 0.0079(3) 1.
Si2 Si4+ 6 i 0.2501(6) 0.5002 0 0.0079(3) 1.
Al1 Al3+ 6 h 0.2490(10) 0 0.5 0.0079(3) 0.8
Si3 Si4+ 6 h 0.2490(10) 0 0.5 0.0079(3) 0.2
Al2 Al3+ 6 j 0.2503(6) 0.5006 0.5 0.0079(3) 0.8
Si4 Si4+ 6 j 0.2503(6) 0.5006 0.5 0.0079(3) 0.2
O1 O2- 12 k 0.1117(2) 0.1990(4) 0.2415(1) 0.0134(9) 1.
O2 O2- 12 k 0.0987(15) 0.6966(12) 0.2563(9) 0.0134(9) 1.
O3 O2- 12 k 0.5913(10) 0.7010(11) 0.2779(6) 0.0134(9) 1.
O4 O2- 12 k 0.5998(17) 0.2024(17) 0.2494(11) 0.0134(9) 1.
#End of TTdata_117137-ICSD