
#(C) 2024 by FIZ Karlsruhe - Leibniz Institute for Information Infrastructure.  All rights reserved.
data_411244-ICSD
_database_code_ICSD 411244
_audit_creation_date 2002-04-01
_audit_update_record 2016-02-01
_chemical_name_common 'Pentacadmium tris(phosphate(V)) bromide'
_chemical_formula_structural 'Cd5 (P O4)3 Br'
_chemical_formula_sum 'Br1 Cd5 O12 P3'
_exptl_crystal_density_diffrn 1.92
_diffrn_ambient_temperature 150.
_citation_title 'Incommensurately modulated cadmium apatites'
loop_
_citation_id
_citation_journal_full
_citation_year
_citation_journal_volume
_citation_page_first
_citation_page_last
_citation_journal_id_ASTM
primary 'Journal of Solid State Chemistry' 2000 150 154 158 JSSCBI
loop_
_citation_author_citation_id
_citation_author_name
primary 'Alberius-Henning, P.A.'
primary 'Moustiakimov, M.'
primary 'Lidin, S.'
_cell_length_a 16.932(2)
_cell_length_b 16.932(2)
_cell_length_c 6.451(1)
_cell_angle_alpha 90.
_cell_angle_beta 90.
_cell_angle_gamma 120.
_cell_volume 1601.67
_cell_formula_units_Z 2
_space_group_name_H-M_alt 'P -3'
_space_group_IT_number 147
loop_
_space_group_symop_id
_space_group_symop_operation_xyz
1 'x-y, x, -z'
2 'y, -x+y, -z'
3 '-x, -y, -z'
4 '-x+y, -x, z'
5 '-y, x-y, z'
6 'x, y, z'
loop_
_atom_type_symbol
_atom_type_oxidation_number
O2- -2
P5+ 5
Cd2+ 2
Br1- -1
loop_
_atom_site_label
_atom_site_type_symbol
_atom_site_symmetry_multiplicity
_atom_site_Wyckoff_symbol
_atom_site_fract_x
_atom_site_fract_y
_atom_site_fract_z
_atom_site_U_iso_or_equiv
_atom_site_occupancy
O1 O2- 6 g 0.2879(2) 0.2175(2) 0.25 0.0095(4) 1.
O2 O2- 6 g 0.3496(2) 0.1088(2) 0.25 0.0095(4) 1.
O3 O2- 6 g 0.2053(2) 0.0639(1) 0.0609(4) 0.0095(4) 1.
O4 O2- 6 g -0.2053(2) -0.0639(1) 0.5609(4) 0.0095(4) 1.
P1 P5+ 6 g 0.26197(7) 0.11732(7) 0.25 0.0041(3) 1.
Cd1 Cd2+ 2 d 0.33333 -0.33333 0.00591(7) 0.0090(2) 1.
Cd2 Cd2+ 2 d -0.33333 0.33333 0.50591(7) 0.0090(2) 1.
Cd3 Cd2+ 6 g 0.07684(2) 0.17757(2) 0.25 0.0067(2) 1.
Br1 Br1- 2 c 0 0 0.279(1) 0.0017(6) 0.704(2)
Br2 Br1- 2 c 0 0 0.779(1) 0.0017(6) 0.296(2)
#End of TTdata_411244-ICSD