
#(C) 2024 by FIZ Karlsruhe - Leibniz Institute for Information Infrastructure.  All rights reserved.
data_118771-ICSD
_database_code_ICSD 118771
_audit_creation_date 2024-02-01
_chemical_name_common
'Calcium sodium aluminium silicon oxide (0.476/0.524/1.372/2.628/8)'
_chemical_formula_structural '(Ca0.476 Na0.524) (Al1.372 Si2.628) O8'
_chemical_formula_sum 'Al1.372 Ca0.476 Na0.524 O8 Si2.628'
_chemical_name_structure_type Feldspar(TC)#Albite#NaAlSi3O8
_chemical_name_mineral Plagioclase
_exptl_crystal_density_diffrn 2.69
_diffrn_ambient_temperature 293.
_citation_title

;
Communication between cation environments in aluminosilicate frameworks:
incommensurately modulated crystal structure of an e-plagioclase
;
loop_
_citation_id
_citation_journal_full
_citation_year
_citation_journal_volume
_citation_page_first
_citation_page_last
_citation_journal_id_ASTM
primary

;
Acta Crystallographica, Section B: Structural Science, Crystal Engineering and
Materials
; 2016 72 787 801 ACSBDA
loop_
_citation_author_citation_id
_citation_author_name
primary 'Fredrickson, Rie T.'
primary 'Fredrickson, Daniel C.'
_cell_length_a 8.1590(9)
_cell_length_b 12.8579(12)
_cell_length_c 14.1875(19)
_cell_angle_alpha 93.369(9)
_cell_angle_beta 116.229(12)
_cell_angle_gamma 89.691(8)
_cell_volume 1332.46
_cell_formula_units_Z 8
_space_group_name_H-M_alt 'F -1'
_space_group_IT_number 2
loop_
_space_group_symop_id
_space_group_symop_operation_xyz
1 '-x, -y, -z'
2 'x, y, z'
3 '-x, -y+1/2, -z+1/2'
4 'x, y+1/2, z+1/2'
5 '-x+1/2, -y, -z+1/2'
6 'x+1/2, y, z+1/2'
7 '-x+1/2, -y+1/2, -z'
8 'x+1/2, y+1/2, z'
loop_
_atom_type_symbol
_atom_type_oxidation_number
Ca2+ 2
Na1+ 1
Si4+ 4
Al3+ 3
Si4+ 4
Al3+ 3
Si4+ 4
Al3+ 3
Si4+ 4
Al3+ 3
O2- -2
loop_
_atom_site_label
_atom_site_type_symbol
_atom_site_symmetry_multiplicity
_atom_site_Wyckoff_symbol
_atom_site_fract_x
_atom_site_fract_y
_atom_site_fract_z
_atom_site_U_iso_or_equiv
_atom_site_occupancy
Ca1 Ca2+ 8 i 0.5196(3) 0.02526(16) 0.05231(16) 0.0200(6) 0.4327
Na1 Na1+ 8 i 0.5177(4) 0.9812(2) 0.0833(2) 0.0200(6) 0.5673
Si1 Si4+ 8 i 0.25320(11) 0.81789(6) 0.11597(6) 0.0110(3) 0.7286
Al1 Al3+ 8 i 0.25320(11) 0.81789(6) 0.11597(6) 0.0110(3) 0.2714
Si2 Si4+ 8 i 0.93210(11) 0.87972(6) 0.17847(6) 0.0106(3) 0.7155
Al2 Al3+ 8 i 0.93210(11) 0.87972(6) 0.17847(6) 0.0106(3) 0.2845
Si3 Si4+ 8 i 0.56340(11) 0.89036(6) 0.34148(7) 0.0107(3) 0.778
Al3 Al3+ 8 i 0.56340(11) 0.89036(6) 0.34148(7) 0.0107(3) 0.222
Si4 Si4+ 8 i 0.24353(11) 0.83471(7) 0.89314(7) 0.0112(3) 0.4062
Al4 Al3+ 8 i 0.24353(11) 0.83471(7) 0.89314(7) 0.0112(3) 0.5938
O1 O2- 8 i 0.6664(3) 0.00642(15) 0.36062(16) 0.0145(8) 1
O2 O2- 8 i 0.4394(3) 0.86730(17) 0.21580(17) 0.0208(8) 1
O3 O2- 8 i 0.2472(3) 0.87066(17) 0.01120(16) 0.0200(9) 1
O4 O2- 8 i 0.0512(3) 0.89142(16) 0.30762(16) 0.0190(8) 1
O5 O2- 8 i 0.4377(3) 0.89321(17) 0.40501(17) 0.0191(9) 1
O6 O2- 8 i 0.2356(3) 0.70602(17) 0.86072(17) 0.0188(8) 1
O7 O2- 8 i 0.2665(3) 0.68959(17) 0.10897(17) 0.0195(8) 1
O8 O2- 8 i 0.0669(3) 0.85319(18) 0.12290(19) 0.0249(10) 1
loop_
_atom_site_aniso_label
_atom_site_aniso_type_symbol
_atom_site_aniso_U_11
_atom_site_aniso_U_22
_atom_site_aniso_U_33
_atom_site_aniso_U_12
_atom_site_aniso_U_13
_atom_site_aniso_U_23
Ca1 Ca2+ 0.0118(5) 0.0242(9) 0.0200(9) 0.0008(6) 0.0045(6) -0.0073(6)
Na1 Na1+ 0.0118(5) 0.0242(9) 0.0200(9) 0.0008(6) 0.0045(6) -0.0073(6)
Si1 Si4+ 0.0117(4) 0.0131(4) 0.0082(4) 0.0034(3) 0.0045(3) 0.0007(3)
Al1 Al3+ 0.0117(4) 0.0131(4) 0.0082(4) 0.0034(3) 0.0045(3) 0.0007(3)
Si2 Si4+ 0.0111(4) 0.0100(4) 0.0105(4) 0.0005(3) 0.0044(3) 0.0016(3)
Al2 Al3+ 0.0111(4) 0.0100(4) 0.0105(4) 0.0005(3) 0.0044(3) 0.0016(3)
Si3 Si4+ 0.0110(4) 0.0093(4) 0.0107(4) 0.0003(3) 0.0039(3) 0.0004(3)
Al3 Al3+ 0.0110(4) 0.0093(4) 0.0107(4) 0.0003(3) 0.0039(3) 0.0004(3)
Si4 Si4+ 0.0121(4) 0.0132(4) 0.0090(4) -0.0021(3) 0.0051(3) 0.0011(3)
Al4 Al3+ 0.0121(4) 0.0132(4) 0.0090(4) -0.0021(3) 0.0051(3) 0.0011(3)
O1 O2- 0.0154(11) 0.0117(10) 0.0149(11) -0.0003(8) 0.0050(9) 0.0027(9)
O2 O2- 0.0188(11) 0.0211(12) 0.0141(11) 0.0011(9) 0.0001(9) -0.0019(9)
O3 O2- 0.0271(12) 0.0238(12) 0.0120(11) 0.0018(10) 0.0111(10) 0.0024(10)
O4 O2- 0.0186(11) 0.0203(12) 0.0133(11) 0.0016(9) 0.0026(9) 0.0022(9)
O5 O2- 0.0202(11) 0.0190(11) 0.0210(12) -0.0025(9) 0.0119(10) -0.0005(10)
O6 O2- 0.0177(11) 0.0197(11) 0.0184(12) -0.0032(9) 0.0074(10) 0.0014(10)
O7 O2- 0.0191(11) 0.0180(11) 0.0165(12) 0.0057(9) 0.0040(10) -0.0024(9)
O8 O2- 0.0202(12) 0.0259(13) 0.0331(14) 0.0034(10) 0.0164(11) -0.0019(11)
#End of TTdata_118771-ICSD