
#(C) 2024 by FIZ Karlsruhe - Leibniz Institute for Information Infrastructure.  All rights reserved.
data_117159-ICSD
_database_code_ICSD 117159
_audit_creation_date 2023-02-01
_chemical_name_common 'Dilithium bis(hexaoxoaluminodisilicate) dihydrate'
_chemical_formula_structural 'Li2 (Al2 Si4 O12) (H2 O)2'
_chemical_formula_sum 'H4 Al2 Li2 O14 Si4'
_chemical_name_structure_type Bikitaite-1A-frame#Li2Al2Si4O12(H2O)2
_chemical_name_mineral Bikitaite
_exptl_crystal_density_diffrn 2.3
_diffrn_ambient_pressure 100.
_citation_title

;
High-pressure behavior of bikitaite: An integrated theoretical and
experimental approach
;
loop_
_citation_id
_citation_journal_full
_citation_year
_citation_journal_volume
_citation_page_first
_citation_page_last
_citation_journal_id_ASTM
primary 'American Mineralogist' 2002 87 1415 1425 AMMIAY
loop_
_citation_author_citation_id
_citation_author_name
primary 'Ferro, Orazio'
primary 'Quartieri, Simona'
primary 'Vezzalini,  Giovanna'
primary 'Fois, Ettore'
primary 'Gamba, Aldo'
primary 'Tabacchi, Gloria'
_cell_length_a 8.6061(11)
_cell_length_b 4.9573(4)
_cell_length_c 7.5970(7)
_cell_angle_alpha 89.94(6)
_cell_angle_beta 114.407(9)
_cell_angle_gamma 89.98(5)
_cell_volume 295.15
_cell_formula_units_Z 1
_space_group_name_H-M_alt 'P 1'
_space_group_IT_number 1
loop_
_space_group_symop_id
_space_group_symop_operation_xyz
1 'x, y, z'
loop_
_atom_type_symbol
_atom_type_oxidation_number
Li1+ 1
Si4+ 4
Al3+ 3
O2- -2
H1+ 1
loop_
_atom_site_label
_atom_site_type_symbol
_atom_site_symmetry_multiplicity
_atom_site_Wyckoff_symbol
_atom_site_fract_x
_atom_site_fract_y
_atom_site_fract_z
_atom_site_B_iso_or_equiv
_atom_site_occupancy
Li1 Li1+ 1 a 0.2965 0.3307 0.1531 . 1.
Li2 Li1+ 1 a 0.6648 0.8312 0.8256 . 1.
Si1 Si4+ 1 a 0.0888 0.8186 0.068 . 1.
Si2 Si4+ 1 a 0.0854 0.8013 0.4793 . 1.
Si3 Si4+ 1 a 0.8563 0.2972 0.4525 . 1.
Si4 Si4+ 1 a 0.6 0.3492 0.0473 . 1.
Al1 Al3+ 1 a 0.35 0.8515 0.9033 . 1.
Al2 Al3+ 1 a 0.873 0.3181 0.8854 . 1.
O1 O2- 1 a 0.2427 0.6978 0.0316 . 1.
O2 O2- 1 a 0.0577 0.1463 0.0327 . 1.
O3 O2- 1 a 0.1365 0.752 0.3005 . 1.
O4 O2- 1 a 0.0231 0.5134 0.5318 . 1.
O5 O2- 1 a 0.2414 0.9245 0.656 . 1.
O6 O2- 1 a 0.4411 0.1616 0.0355 . 1.
O7 O2- 1 a 0.702 0.2022 0.9372 . 1.
O8 O2- 1 a 0.9016 0.6699 0.9377 . 1.
O9 O2- 1 a 0.8065 0.2515 0.637 . 1.
O10 O2- 1 a 0.9173 0.0122 0.4016 . 1.
O11 O2- 1 a 0.7047 0.4224 0.2675 . 1.
O12 O2- 1 a 0.5217 0.6345 0.9289 . 1.
O13 O2- 1 a 0.3951 0.2779 0.4472 . 1.
O14 O2- 1 a 0.5634 0.7773 0.5357 . 1.
H1 H1+ 1 a 0.3186 0.2389 0.5052 . 1.
H2 H1+ 1 a 0.4695 0.123 0.4807 . 1.
H3 H1+ 1 a 0.6439 0.7638 0.4792 . 1.
H4 H1+ 1 a 0.4995 0.6111 0.5012 . 1.
#End of TTdata_117159-ICSD