
#(C) 2024 by FIZ Karlsruhe - Leibniz Institute for Information Infrastructure.  All rights reserved.
data_259317-ICSD
_database_code_ICSD 259317
_audit_creation_date 2018-08-01
_chemical_name_common 'Lanthanum niobium oxide (0.333/1/3)'
_chemical_formula_structural 'La0.333 Nb O3'
_chemical_formula_sum 'La0.333 Nb1 O3'
_chemical_name_structure_type NdxNbO3
_exptl_crystal_density_diffrn 5.13
_citation_title

;
Prospects for engineering thermoelectric properties in La1/3NbO3 ceramics
revealed via atomic-level characterization and modeling
;
loop_
_citation_id
_citation_journal_full
_citation_year
_citation_journal_volume
_citation_page_first
_citation_page_last
_citation_journal_id_ASTM
primary 'Inorganic Chemistry' 2018 57 45 55 INOCAJ
loop_
_citation_author_citation_id
_citation_author_name
primary 'Kepaptsoglou, Demie'
primary 'Baran, Jakub D.'
primary 'Azough, Feridoon'
primary 'Ekren, Dursun'
primary 'Srivastava, Deepanshu'
primary 'Molinari, Marco'
primary 'Parker, Stephen C.'
primary 'Ramasse, Quentin M.'
primary 'Freer, Robert'
_cell_length_a 7.815993
_cell_length_b 7.8364456
_cell_length_c 7.9108678
_cell_angle_alpha 90.
_cell_angle_beta 90.
_cell_angle_gamma 90.
_cell_volume 484.54
_cell_formula_units_Z 8
_space_group_name_H-M_alt 'C m m m'
_space_group_IT_number 65
loop_
_space_group_symop_id
_space_group_symop_operation_xyz
1 'x, -y, z'
2 '-x, y, z'
3 'x, y, -z'
4 '-x, -y, -z'
5 '-x, y, -z'
6 'x, -y, -z'
7 '-x, -y, z'
8 'x, y, z'
9 'x+1/2, -y+1/2, z'
10 '-x+1/2, y+1/2, z'
11 'x+1/2, y+1/2, -z'
12 '-x+1/2, -y+1/2, -z'
13 '-x+1/2, y+1/2, -z'
14 'x+1/2, -y+1/2, -z'
15 '-x+1/2, -y+1/2, z'
16 'x+1/2, y+1/2, z'
loop_
_atom_type_symbol
_atom_type_oxidation_number
La3+ 3
Nb5+ 5
O2- -2
loop_
_atom_site_label
_atom_site_type_symbol
_atom_site_symmetry_multiplicity
_atom_site_Wyckoff_symbol
_atom_site_fract_x
_atom_site_fract_y
_atom_site_fract_z
_atom_site_B_iso_or_equiv
_atom_site_occupancy
La1 La3+ 2 a 0 0 0 1.218 0.6803
La2 La3+ 2 b 0 0.5 0 1.218 0.6012
Nb1 Nb5+ 8 m 0.25 0.25 0.2631 1.034 1.
O1 O2- 8 n 0 0.31161 0.26288 1.15 1.
O2 O2- 8 o 0.23858 0 0.22476 1.15 1.
O3 O2- 4 e 0.25 0.25 0 1.15 1.
O4 O2- 4 f 0.25 0.25 0.5 1.15 1.
#End of TTdata_259317-ICSD