
#(C) 2024 by FIZ Karlsruhe - Leibniz Institute for Information Infrastructure.  All rights reserved.
data_637873-ICSD
_database_code_ICSD 637873
_audit_creation_date 2010-02-01
_audit_update_record 2017-08-01
_chemical_name_common 'Germanium tin selenide telluride (0.2/0.8/0.8/0.2)'
_chemical_formula_structural '(Ge0.2 Sn0.8) (Se0.8 Te0.2)'
_chemical_formula_sum 'Ge0.2 Se0.8 Sn0.8 Te0.2'
_chemical_name_structure_type GeS
_exptl_crystal_density_diffrn 6.17
_citation_title

;
Ueber Struktur und Eigenschaften der Halbmetalle. XVI. Mischkristallsysteme
zwischen halbleitenden Chalkogeniden der vierten Hauptgruppe. II
;
_publ_section_comment 'Cell and Type only determined'
loop_
_citation_id
_citation_journal_full
_citation_year
_citation_journal_volume
_citation_page_first
_citation_page_last
_citation_journal_id_ASTM
primary 'Zeitschrift fuer Anorganische und Allgemeine Chemie (1950) (DE)' 1964
334 37 49 ZAACAB
loop_
_citation_author_citation_id
_citation_author_name
primary 'Krebs, H.'
primary 'Langner, D.'
_cell_length_a 4.47
_cell_length_b 4.153
_cell_length_c 11.5
_cell_angle_alpha 90.
_cell_angle_beta 90.
_cell_angle_gamma 90.
_cell_volume 213.49
_cell_formula_units_Z 4
_space_group_name_H-M_alt 'P c m n'
_space_group_IT_number 62
loop_
_space_group_symop_id
_space_group_symop_operation_xyz
1 '-x+1/2, y, z+1/2'
2 'x, -y+1/2, z'
3 'x+1/2, y+1/2, -z+1/2'
4 '-x, -y, -z'
5 'x+1/2, -y, -z+1/2'
6 '-x, y+1/2, -z'
7 '-x+1/2, -y+1/2, z+1/2'
8 'x, y, z'
loop_
_atom_type_symbol
_atom_type_oxidation_number
Ge2+ 2
Sn2+ 2
Se2- -2
Te2- -2
loop_
_atom_site_label
_atom_site_type_symbol
_atom_site_symmetry_multiplicity
_atom_site_Wyckoff_symbol
_atom_site_fract_x
_atom_site_fract_y
_atom_site_fract_z
_atom_site_B_iso_or_equiv
_atom_site_occupancy
Ge1 Ge2+ 4 c 0.1 0.25 0.12 . 0.2
Sn1 Sn2+ 4 c 0.1 0.25 0.12 . 0.8
Se1 Se2- 4 c 0.48 0.25 0.86 . 0.8
Te1 Te2- 4 c 0.48 0.25 0.86 . 0.2
#End of TTdata_637873-ICSD