
#(C) 2023 by FIZ Karlsruhe - Leibniz Institute for Information Infrastructure.  All rights reserved.
data_138351-ICSD
_database_code_ICSD 138351
_audit_creation_date 2023-02-01
_chemical_name_common 'Sodium silicide (4/24)'
_chemical_formula_structural 'Na4 Si24'
_chemical_formula_sum 'Na4 Si24'
_chemical_name_structure_type EuGa2Ge4
_exptl_crystal_density_diffrn 2.4
_diffrn_ambient_temperature 100.
_citation_title
'Synthesis and properties of single-crystalline Na\(_4\)Si\(_{24}\)'
loop_
_citation_id
_citation_journal_full
_citation_year
_citation_journal_volume
_citation_page_first
_citation_page_last
_citation_journal_id_ASTM
primary 'Crystal Growth & Design' 2018 18 7410 7418 CGDEFU
loop_
_citation_author_citation_id
_citation_author_name
primary 'Guerette, Michael'
primary 'Ward, Matthew D.'
primary 'Lokshin, Konstantin A.'
primary 'Wong, Anthony T.'
primary 'Zhang, Haidong'
primary 'Stefanoski, Stevce'
primary 'Kurakevych, Oleksandr'
primary 'Le Godec, Yann'
primary 'Juhl, Stephen J.'
primary 'Alem, Nasim'
primary 'Fei, Yingwei'
primary 'Strobel, Timothy A.'
_cell_length_a 4.0801(2)
_cell_length_b 10.5718(5)
_cell_length_c 12.2787(6)
_cell_angle_alpha 90
_cell_angle_beta 90
_cell_angle_gamma 90
_cell_volume 529.62
_cell_formula_units_Z 1
_space_group_name_H-M_alt 'C m c m'
_space_group_IT_number 63
loop_
_space_group_symop_id
_space_group_symop_operation_xyz
1 '-x, y, -z+1/2'
2 '-x, -y, z+1/2'
3 '-x, y, z'
4 '-x, -y, -z'
5 'x, -y, z+1/2'
6 'x, y, -z+1/2'
7 'x, -y, -z'
8 'x, y, z'
9 '-x+1/2, y+1/2, -z+1/2'
10 '-x+1/2, -y+1/2, z+1/2'
11 '-x+1/2, y+1/2, z'
12 '-x+1/2, -y+1/2, -z'
13 'x+1/2, -y+1/2, z+1/2'
14 'x+1/2, y+1/2, -z+1/2'
15 'x+1/2, -y+1/2, -z'
16 'x+1/2, y+1/2, z'
loop_
_atom_type_symbol
_atom_type_oxidation_number
Si0+ 0
Na0+ 0
loop_
_atom_site_label
_atom_site_type_symbol
_atom_site_symmetry_multiplicity
_atom_site_Wyckoff_symbol
_atom_site_fract_x
_atom_site_fract_y
_atom_site_fract_z
_atom_site_U_iso_or_equiv
_atom_site_occupancy
Si1 Si0+ 8 f 0. 0.02699(5) 0.09462(4) 0.00343(13) 1
Si2 Si0+ 8 f 0. 0.24423(5) 0.04925(4) 0.00364(13) 1
Si3 Si0+ 8 f 0. 0.43281(5) 0.15382(4) 0.00349(13) 1
Na1 Na0+ 4 c 0. 0.71285(12) 0.25 0.0087(2) 1
loop_
_atom_site_aniso_label
_atom_site_aniso_type_symbol
_atom_site_aniso_U_11
_atom_site_aniso_U_22
_atom_site_aniso_U_33
_atom_site_aniso_U_12
_atom_site_aniso_U_13
_atom_site_aniso_U_23
Si1 Si0+ 0.0031(3) 0.0031(2) 0.0041(2) 0. 0. 0.00041(18)
Si2 Si0+ 0.0035(2) 0.0034(2) 0.0040(2) 0. 0. -0.00071(19)
Si3 Si0+ 0.0038(3) 0.0038(3) 0.0029(2) 0. 0. -0.00034(18)
Na1 Na0+ 0.0092(6) 0.0078(5) 0.0090(5) 0. 0. 0.
#End of TTdata_138351-ICSD