
#(C) 2023 by FIZ Karlsruhe - Leibniz Institute for Information Infrastructure.  All rights reserved.
data_245295-ICSD
_database_code_ICSD 245295
_audit_creation_date 2008-02-01
_chemical_name_common 'Barium hexasilicide'
_chemical_formula_structural 'Ba Si6'
_chemical_formula_sum 'Ba1 Si6'
_chemical_name_structure_type EuGa2Ge4
_exptl_crystal_density_diffrn 3.65
_citation_title

;
Structural evolution of the binary system Ba-Si under high-pressure and
high-temperature conditions
;
loop_
_citation_id
_citation_journal_full
_citation_year
_citation_journal_volume
_citation_page_first
_citation_page_last
_citation_journal_id_ASTM
primary 'Zeitschrift fuer Naturforschung, B: A Journal of Chemical Sciences'
2006 61 1493 1499 ZNBSEN
loop_
_citation_author_citation_id
_citation_author_name
primary 'Yamanaka, S.'
primary 'Maekawa, S.'
_cell_length_a 4.485(1)
_cell_length_b 10.375(2)
_cell_length_c 11.969(3)
_cell_angle_alpha 90.
_cell_angle_beta 90.
_cell_angle_gamma 90.
_cell_volume 556.94
_cell_formula_units_Z 4
_space_group_name_H-M_alt 'C m c m'
_space_group_IT_number 63
loop_
_space_group_symop_id
_space_group_symop_operation_xyz
1 '-x, y, -z+1/2'
2 '-x, -y, z+1/2'
3 '-x, y, z'
4 '-x, -y, -z'
5 'x, -y, z+1/2'
6 'x, y, -z+1/2'
7 'x, -y, -z'
8 'x, y, z'
9 '-x+1/2, y+1/2, -z+1/2'
10 '-x+1/2, -y+1/2, z+1/2'
11 '-x+1/2, y+1/2, z'
12 '-x+1/2, -y+1/2, -z'
13 'x+1/2, -y+1/2, z+1/2'
14 'x+1/2, y+1/2, -z+1/2'
15 'x+1/2, -y+1/2, -z'
16 'x+1/2, y+1/2, z'
loop_
_atom_type_symbol
_atom_type_oxidation_number
Ba0+ 0
Si0+ 0
loop_
_atom_site_label
_atom_site_type_symbol
_atom_site_symmetry_multiplicity
_atom_site_Wyckoff_symbol
_atom_site_fract_x
_atom_site_fract_y
_atom_site_fract_z
_atom_site_B_iso_or_equiv
_atom_site_occupancy
Ba1 Ba0+ 4 c 0 0.273(4) 0.25 0.6(1) 1.
Si1 Si0+ 8 f 0 0.250(1) 0.537(1) 0.6(3) 1.
Si2 Si0+ 8 f 0 0.559(1) 0.351(1) 0.6(3) 1.
Si3 Si0+ 8 f 0 0.024(1) 0.599(1) 0.6(3) 1.
#End of TTdata_245295-ICSD