
#(C) 2023 by FIZ Karlsruhe - Leibniz Institute for Information Infrastructure.  All rights reserved.
data_161134-ICSD
_database_code_ICSD 161134
_audit_creation_date 2009-02-01
_chemical_name_common 'Nickel silicide (2/1) - delta'
_chemical_formula_structural 'Ni2 Si'
_chemical_formula_sum 'Ni2 Si1'
_chemical_name_structure_type TiNiSi#MgSrSi
_exptl_crystal_density_diffrn 7.3
_diffrn_ambient_temperature 293.
_citation_title

;
Structural stability of Fe5 Si3 and Ni2 Si studied by high-pressure X-ray
diffraction and ab initio total-energy calculations
;
loop_
_citation_id
_citation_journal_full
_citation_year
_citation_journal_volume
_citation_page_first
_citation_page_last
_citation_journal_id_ASTM
primary 'Physical Review B: Condensed Matter and Materials Physics' 2008 77 1 12
PRBMDO
loop_
_citation_author_citation_id
_citation_author_name
primary 'Errandonea, D.'
primary 'Santamaria Perez, D.'
primary 'Vegas, A.'
primary 'Nuss, J.'
primary 'Jansen, M.'
primary 'Rodriguez Hernandez, P.'
primary 'Munoz, A.'
_cell_length_a 7.06(5)
_cell_length_b 5.00(5)
_cell_length_c 3.75(5)
_cell_angle_alpha 90.
_cell_angle_beta 90.
_cell_angle_gamma 90.
_cell_volume 132.38
_cell_formula_units_Z 4
_space_group_name_H-M_alt 'P b n m'
_space_group_IT_number 62
loop_
_space_group_symop_id
_space_group_symop_operation_xyz
1 '-x+1/2, y+1/2, z'
2 'x, y, -z+1/2'
3 'x+1/2, -y+1/2, z+1/2'
4 '-x, -y, -z'
5 'x+1/2, -y+1/2, -z'
6 '-x, -y, z+1/2'
7 '-x+1/2, y+1/2, -z+1/2'
8 'x, y, z'
loop_
_atom_type_symbol
_atom_type_oxidation_number
Ni0+ 0
Si0+ 0
loop_
_atom_site_label
_atom_site_type_symbol
_atom_site_symmetry_multiplicity
_atom_site_Wyckoff_symbol
_atom_site_fract_x
_atom_site_fract_y
_atom_site_fract_z
_atom_site_B_iso_or_equiv
_atom_site_occupancy
Ni1 Ni0+ 4 c 0.063 0.325 0.25 . 1.
Ni2 Ni0+ 4 c 0.203 0.042 0.75 . 1.
Si1 Si0+ 4 c 0.386 0.263 0.25 . 1.
#End of TTdata_161134-ICSD