
#(C) 2024 by FIZ Karlsruhe - Leibniz Institute for Information Infrastructure.  All rights reserved.
data_260214-ICSD
_database_code_ICSD 260214
_audit_creation_date 2009-08-01
_chemical_name_common 'Silver germanium lanthanum sulfide (0.82/1/3/7)'
_chemical_formula_structural 'Ag0.82 Ge La3 S7'
_chemical_formula_sum 'Ag0.82 Ge1 La3 S7'
_chemical_name_structure_type CuLa3SiS7
_exptl_crystal_density_diffrn 4.88
_diffrn_ambient_temperature 295.
_citation_title

;
Ln3 M1 - T X7 - quasi - isostructural compounds: stereochemistry and silver -
ion motion in the Ln3 Ag1 - Ge S7 (Ln = La - Nd, Sm, Gd - Er and Y;  = 0.11 -
0.50) compounds
;
loop_
_citation_id
_citation_journal_full
_citation_year
_citation_journal_volume
_citation_page_first
_citation_page_last
_citation_journal_id_ASTM
primary 'Acta Crystallographica, Section B: Structural Science' 2009 65 126 133
ASBSDK
loop_
_citation_author_citation_id
_citation_author_name
primary 'Daszkiewicz, M.'
primary 'Gulay, L.D.'
primary 'Lychmanyuk, O.S.'
_cell_length_a 10.4056(15)
_cell_length_b 10.4056(15)
_cell_length_c 5.8280(12)
_cell_angle_alpha 90.
_cell_angle_beta 90.
_cell_angle_gamma 120.
_cell_volume 546.49
_cell_formula_units_Z 2
_space_group_name_H-M_alt 'P 63'
_space_group_IT_number 173
loop_
_space_group_symop_id
_space_group_symop_operation_xyz
1 'x-y, x, z+1/2'
2 'y, -x+y, z+1/2'
3 '-x, -y, z+1/2'
4 '-x+y, -x, z'
5 '-y, x-y, z'
6 'x, y, z'
loop_
_atom_type_symbol
_atom_type_oxidation_number
La3+ 3
Ag1+ 1
Ge4+ 4
S2- -2
loop_
_atom_site_label
_atom_site_type_symbol
_atom_site_symmetry_multiplicity
_atom_site_Wyckoff_symbol
_atom_site_fract_x
_atom_site_fract_y
_atom_site_fract_z
_atom_site_U_iso_or_equiv
_atom_site_occupancy
La1 La3+ 6 c 0.875611(18) 0.641442(18) 0.24144(6) 0.00881(6) 1
Ag1 Ag1+ 2 a 0. 0. 0.18424(19) 0.0387(6) 0.719(3)
Ag2 Ag1+ 2 a 0. 0. 0.9766(13) 0.018(2) 0.102(3)
Ge1 Ge4+ 2 b 0.3333 0.6667 0.32488(9) 0.00826(14) 1
S1 S2- 2 b 0.3333 0.6667 0.9515(2) 0.0114(3) 1
S2 S2- 6 c 0.90929(9) 0.73775(9) 0.72749(15) 0.01254(16) 1
S3 S2- 6 c 0.58764(10) 0.47816(10) 0.97462(12) 0.00978(18) 1
loop_
_atom_site_aniso_label
_atom_site_aniso_type_symbol
_atom_site_aniso_U_11
_atom_site_aniso_U_22
_atom_site_aniso_U_33
_atom_site_aniso_U_12
_atom_site_aniso_U_13
_atom_site_aniso_U_23
La1 La3+ 0.00902(10) 0.00790(10) 0.00959(8) 0.00429(8) -0.00087(11) -0.00073(9)
Ag1 Ag1+ 0.0098(3) 0.0098(3) 0.0966(17) 0.00489(16) 0. 0.
Ag2 Ag1+ 0.0101(18) 0.0101(18) 0.034(5) 0.0050(9) 0. 0.
Ge1 Ge4+ 0.0089(2) 0.0089(2) 0.0070(2) 0.00445(10) 0. 0.
S1 S2- 0.0132(5) 0.0132(5) 0.0078(7) 0.0066(3) 0. 0.
S2 S2- 0.0097(4) 0.0169(4) 0.0111(3) 0.0066(3) 0.0010(4) -0.0007(4)
S3 S2- 0.0102(5) 0.0084(4) 0.0114(3) 0.0051(4) 0.0013(3) 0.0011(3)
#End of TTdata_260214-ICSD