
#(C) 2024 by FIZ Karlsruhe - Leibniz Institute for Information Infrastructure.  All rights reserved.
data_245317-ICSD
_database_code_ICSD 245317
_audit_creation_date 2008-02-01
_chemical_name_common 'Dipotassium lithium alanate'
_chemical_formula_structural 'K2 Li Al H6'
_chemical_formula_sum 'H6 Al1 K2 Li1'
_chemical_name_structure_type PuNi3(filled)-frame
_exptl_crystal_density_diffrn 1.57
_citation_title

;
Crystal structure, raman spectroscopy and ab initio calculations of a new
bialkali alanate K2 Li Al H6
;
loop_
_citation_id
_citation_journal_full
_citation_year
_citation_journal_volume
_citation_page_first
_citation_page_last
_citation_journal_id_ASTM
primary 'Journal of Physical Chemistry B' 2006 110 25686 25691 JPCBFK
loop_
_citation_author_citation_id
_citation_author_name
primary 'Roennebro, E.'
primary 'Majzoub, E.H.'
_cell_length_a 5.62068(8)
_cell_length_b 5.62068(8)
_cell_length_c 27.3986(6)
_cell_angle_alpha 90.
_cell_angle_beta 90.
_cell_angle_gamma 120.
_cell_volume 749.61
_cell_formula_units_Z 6
_space_group_name_H-M_alt 'R -3 m H'
_space_group_IT_number 166
loop_
_space_group_symop_id
_space_group_symop_operation_xyz
1 'x-y, -y, -z'
2 '-x, -x+y, -z'
3 'y, x, -z'
4 'x-y, x, -z'
5 'y, -x+y, -z'
6 '-x, -y, -z'
7 '-x+y, y, z'
8 'x, x-y, z'
9 '-y, -x, z'
10 '-x+y, -x, z'
11 '-y, x-y, z'
12 'x, y, z'
13 'x-y+2/3, -y+1/3, -z+1/3'
14 '-x+2/3, -x+y+1/3, -z+1/3'
15 'y+2/3, x+1/3, -z+1/3'
16 'x-y+2/3, x+1/3, -z+1/3'
17 'y+2/3, -x+y+1/3, -z+1/3'
18 '-x+2/3, -y+1/3, -z+1/3'
19 '-x+y+2/3, y+1/3, z+1/3'
20 'x+2/3, x-y+1/3, z+1/3'
21 '-y+2/3, -x+1/3, z+1/3'
22 '-x+y+2/3, -x+1/3, z+1/3'
23 '-y+2/3, x-y+1/3, z+1/3'
24 'x+2/3, y+1/3, z+1/3'
25 'x-y+1/3, -y+2/3, -z+2/3'
26 '-x+1/3, -x+y+2/3, -z+2/3'
27 'y+1/3, x+2/3, -z+2/3'
28 'x-y+1/3, x+2/3, -z+2/3'
29 'y+1/3, -x+y+2/3, -z+2/3'
30 '-x+1/3, -y+2/3, -z+2/3'
31 '-x+y+1/3, y+2/3, z+2/3'
32 'x+1/3, x-y+2/3, z+2/3'
33 '-y+1/3, -x+2/3, z+2/3'
34 '-x+y+1/3, -x+2/3, z+2/3'
35 '-y+1/3, x-y+2/3, z+2/3'
36 'x+1/3, y+2/3, z+2/3'
loop_
_atom_type_symbol
_atom_type_oxidation_number
Li1+ 1
Al3+ 3
K1+ 1
H1- -1
loop_
_atom_site_label
_atom_site_type_symbol
_atom_site_symmetry_multiplicity
_atom_site_Wyckoff_symbol
_atom_site_fract_x
_atom_site_fract_y
_atom_site_fract_z
_atom_site_B_iso_or_equiv
_atom_site_occupancy
Li1 Li1+ 6 c 0 0 0.4036(8) 1.9(5) 1.
Al1 Al3+ 3 a 0 0 0 3.35(8) 1.
Al2 Al3+ 3 b 0 0 0.5 3.22(9) 1.
K1 K1+ 6 c 0 0 0.1270(1) 2.57(6) 1.
K2 K1+ 6 c 0 0 0.2853(1) 2.25(6) 1.
H1 H1- 18 h 0.096(7) -0.096(7) 0.466(3) 0.75 1.
H2 H1- 18 h 0.205(5) -0.205(5) 0.638(2) 4.7 1.
#End of TTdata_245317-ICSD