
#(C) 2024 by FIZ Karlsruhe - Leibniz Institute for Information Infrastructure.  All rights reserved.
data_191581-ICSD
_database_code_ICSD 191581
_audit_creation_date 2014-08-01
_audit_update_record 2016-02-01
_chemical_name_common 'Sodium aluminosilicate'
_chemical_formula_structural 'Na (Al Si O4)'
_chemical_formula_sum 'Al1 Na1 O4 Si1'
_chemical_name_structure_type Nepheline#KNa3Al4(SiO4)4
_chemical_name_mineral Nepheline
_exptl_crystal_density_diffrn 2.63
_citation_title

;
Structural and Photoluminescence properties of nepheline-structure Na Al Si O4
: Dy(3+) nanophosphors
;
loop_
_citation_id
_citation_journal_full
_citation_year
_citation_journal_volume
_citation_page_first
_citation_page_last
_citation_journal_id_ASTM
primary 'Journal of Alloys and Compounds' 2014 609 100 106 JALCEU
loop_
_citation_author_citation_id
_citation_author_name
primary 'Kumar, Ashwini'
primary 'Dhoble, S.J.'
primary 'Peshwe, D.R.'
primary 'Bhatt, Jatin'
_cell_length_a 9.978
_cell_length_b 9.978
_cell_length_c 8.33
_cell_angle_alpha 90.
_cell_angle_beta 90.
_cell_angle_gamma 120.
_cell_volume 718.23
_cell_formula_units_Z 8
_space_group_name_H-M_alt 'P 63'
_space_group_IT_number 173
loop_
_space_group_symop_id
_space_group_symop_operation_xyz
1 'x-y, x, z+1/2'
2 'y, -x+y, z+1/2'
3 '-x, -y, z+1/2'
4 '-x+y, -x, z'
5 '-y, x-y, z'
6 'x, y, z'
loop_
_atom_type_symbol
_atom_type_oxidation_number
Na1+ 1
Al3+ 3
Si4+ 4
O2- -2
loop_
_atom_site_label
_atom_site_type_symbol
_atom_site_symmetry_multiplicity
_atom_site_Wyckoff_symbol
_atom_site_fract_x
_atom_site_fract_y
_atom_site_fract_z
_atom_site_U_iso_or_equiv
_atom_site_occupancy
Na1 Na1+ 2 a 0 0 0 0.006 1.
Na2 Na1+ 6 c 0.01 0.43 0.02 0.006 1.
Al1 Al3+ 2 b 0.3333 0.6667 0.18 0.006 1.
Al2 Al3+ 6 c 0.09 0.3333 0.6667 0.009 1.
Si1 Si4+ 2 b 0.3333 0.6667 0.82 0.006 1.
Si2 Si4+ 6 c 0.09 0.3333 0.3333 0.006 1.
O1 O2- 2 b 0.3333 0.6667 0 0.006 1.
O2 O2- 6 c 0.02 0.3333 0.5 0.006 1.
O3 O2- 6 c 0.17 0.52 0.75 0.006 1.
O4 O2- 6 c 0.17 0.52 0.25 0.006 1.
O5 O2- 6 c 0.25 0.28 0.25 0.006 1.
O6 O2- 6 c 0.25 0.28 0.75 0.006 1.
#End of TTdata_191581-ICSD