
#(C) 2024 by FIZ Karlsruhe - Leibniz Institute for Information Infrastructure.  All rights reserved.
data_118770-ICSD
_database_code_ICSD 118770
_audit_creation_date 2024-02-01
_chemical_name_common
'Calcium sodium aluminium silicon oxide (0.433/0.567/1.403/2.597/8)'
_chemical_formula_structural '(Ca0.433 Na0.567) (Al1.403 Si2.597) O8'
_chemical_formula_sum 'Al1.403 Ca0.433 Na0.567 O8 Si2.597'
_chemical_name_mineral Plagioclase
_exptl_crystal_density_diffrn 2.68
_diffrn_ambient_temperature 293.
_citation_title

;
Communication between cation environments in aluminosilicate frameworks:
incommensurately modulated crystal structure of an e-plagioclase
;
loop_
_citation_id
_citation_journal_full
_citation_year
_citation_journal_volume
_citation_page_first
_citation_page_last
_citation_journal_id_ASTM
primary

;
Acta Crystallographica, Section B: Structural Science, Crystal Engineering and
Materials
; 2016 72 787 801 ACSBDA
loop_
_citation_author_citation_id
_citation_author_name
primary 'Fredrickson, Rie T.'
primary 'Fredrickson, Daniel C.'
_cell_length_a 8.1590(9)
_cell_length_b 12.8579(12)
_cell_length_c 14.1875(19)
_cell_angle_alpha 93.369(9)
_cell_angle_beta 116.229(12)
_cell_angle_gamma 89.691(8)
_cell_volume 1332.46
_cell_formula_units_Z 8
_space_group_name_H-M_alt 'F 1'
_space_group_IT_number 1
loop_
_space_group_symop_id
_space_group_symop_operation_xyz
1 'x, y, z'
2 'x, y+1/2, z+1/2'
3 'x+1/2, y, z+1/2'
4 'x+1/2, y+1/2, z'
loop_
_atom_type_symbol
_atom_type_oxidation_number
Ca2+ 2
Na1+ 1
Ca2+ 2
Na1+ 1
Si4+ 4
Al3+ 3
Si4+ 4
Al3+ 3
Si4+ 4
Al3+ 3
Si4+ 4
Al3+ 3
Si4+ 4
Al3+ 3
Si4+ 4
Al3+ 3
Si4+ 4
Al3+ 3
Si4+ 4
Al3+ 3
O2- -2
loop_
_atom_site_label
_atom_site_type_symbol
_atom_site_symmetry_multiplicity
_atom_site_Wyckoff_symbol
_atom_site_fract_x
_atom_site_fract_y
_atom_site_fract_z
_atom_site_U_iso_or_equiv
_atom_site_occupancy
Ca1 Ca2+ 4 a 0.5376(3) 0.9930(2) 0.0619(2) 0.0624(11) 0.4241
Na1 Na1+ 4 a 0.5376(3) 0.9930(2) 0.0619(2) 0.0624(11) 0.5759
Ca2 Ca2+ 4 a 1.0037(5) 1.0002(3) 0.9179(3) 0.0100(8) 0.4424
Na2 Na1+ 4 a 0.9920(6) 0.9616(3) 0.9440(4) 0.0100(8) 0.5576
Si1 Si4+ 4 a 0.7731(2) 0.31288(13) 0.10703(13) 0.0101(7) 0.6299
Al1 Al3+ 4 a 0.7731(2) 0.31288(13) 0.10703(13) 0.0101(7) 0.3701
Si2 Si4+ 4 a 0.0875(3) 0.61571(13) 0.31275(15) 0.0115(7) 0.722
Al2 Al3+ 4 a 0.0875(3) 0.61571(13) 0.31275(15) 0.0115(7) 0.278
Si3 Si4+ 4 a 0.9569(3) 0.10483(12) 0.14978(14) 0.0114(7) 0.8668
Al3 Al3+ 4 a 0.9569(3) 0.10483(12) 0.14978(14) 0.0114(7) 0.1332
Si4 Si4+ 4 a 0.0836(3) 0.38568(12) 0.33274(14) 0.0107(6) 0.6711
Al4 Al3+ 4 a 0.0836(3) 0.38568(12) 0.33274(14) 0.0107(6) 0.3289
Si5 Si4+ 4 a 0.7757(3) 0.66142(12) 0.09795(14) 0.0125(7) 0.4671
Al5 Al3+ 4 a 0.7757(3) 0.66142(12) 0.09795(14) 0.0125(7) 0.5329
Si6 Si4+ 4 a 0.7626(2) 0.33084(12) 0.88407(14) 0.0117(7) 0.3438
Al6 Al3+ 4 a 0.7626(2) 0.33084(12) 0.88407(14) 0.0117(7) 0.6562
Si7 Si4+ 4 a 0.9515(3) 0.87509(13) 0.16975(14) 0.0114(7) 0.6859
Al7 Al3+ 4 a 0.9515(3) 0.87509(13) 0.16975(14) 0.0114(7) 0.3142
Si8 Si4+ 4 a 0.2668(3) 0.17695(13) 0.37516(15) 0.0138(7) 0.8076
Al8 Al3+ 4 a 0.2668(3) 0.17695(13) 0.37516(15) 0.0138(7) 0.1924
O1 O2- 4 a 0.9708(7) 0.6033(4) 0.1846(4) 0.0172(19) 1
O2 O2- 4 a 0.2530(7) 0.3054(4) 0.3816(4) 0.023(2) 1
O3 O2- 4 a 0.4538(8) 0.1437(4) 0.3696(5) 0.026(2) 1
O4 O2- 4 a 0.8512(7) 0.9885(3) 0.1310(4) 0.0155(18) 1
O5 O2- 4 a 0.7649(8) 0.3671(4) 0.0014(4) 0.023(2) 1
O6 O2- 4 a 0.0799(8) 0.1270(4) 0.2756(4) 0.021(2) 1
O7 O2- 4 a 0.7818(7) 0.7874(3) 0.1295(4) 0.0167(19) 1
O8 O2- 4 a 0.0786(7) 0.1010(3) 0.0836(4) 0.018(2) 1
O9 O2- 4 a 0.9539(7) 0.3875(4) 0.3935(4) 0.021(2) 1
O10 O2- 4 a 0.7525(7) 0.1990(4) 0.8508(4) 0.022(2) 1
O11 O2- 4 a 0.1848(7) 0.5013(3) 0.3528(4) 0.0149(18) 1
O12 O2- 4 a 0.9584(7) 0.3620(4) 0.2067(4) 0.024(2) 1
O13 O2- 4 a 0.2710(8) 0.1258(4) 0.4787(4) 0.0193(18) 1
O14 O2- 4 a 0.5884(8) 0.3499(4) 0.1154(5) 0.025(2) 1
O15 O2- 4 a 0.0737(8) 0.8858(4) 0.2998(4) 0.022(2) 1
O16 O2- 4 a 0.7860(7) 0.1842(4) 0.1000(4) 0.0186(19) 1
loop_
_atom_site_aniso_label
_atom_site_aniso_type_symbol
_atom_site_aniso_U_11
_atom_site_aniso_U_22
_atom_site_aniso_U_33
_atom_site_aniso_U_12
_atom_site_aniso_U_13
_atom_site_aniso_U_23
Ca1 Ca2+ 0.0095(11) 0.1024(19) 0.0571(15) -0.0032(11) 0.0060(10) -0.0613(14)
Na1 Na1+ 0.0095(11) 0.1024(19) 0.0571(15) -0.0032(11) 0.0060(10) -0.0613(14)
Ca2 Ca2+ 0.0109(12) 0.0039(9) 0.0164(11) -0.0013(7) 0.0071(8) 0.0013(8)
Na2 Na1+ 0.0109(12) 0.0039(9) 0.0164(11) -0.0013(7) 0.0071(8) 0.0013(8)
Si1 Si4+ 0.0090(10) 0.0135(8) 0.0071(8) 0.0051(6) 0.0028(8) 0.0017(7)
Al1 Al3+ 0.0090(10) 0.0135(8) 0.0071(8) 0.0051(6) 0.0028(8) 0.0017(7)
Si2 Si4+ 0.0099(9) 0.0115(7) 0.0122(9) 0.0016(6) 0.0038(8) 0.0022(7)
Al2 Al3+ 0.0099(9) 0.0115(7) 0.0122(9) 0.0016(6) 0.0038(8) 0.0022(7)
Si3 Si4+ 0.0117(9) 0.0101(7) 0.0125(9) 0.0015(6) 0.0053(7) 0.0009(7)
Al3 Al3+ 0.0117(9) 0.0101(7) 0.0125(9) 0.0015(6) 0.0053(7) 0.0009(7)
Si4 Si4+ 0.0117(10) 0.0102(7) 0.0092(8) -0.0005(6) 0.0037(7) 0.0001(7)
Al4 Al3+ 0.0117(10) 0.0102(7) 0.0092(8) -0.0005(6) 0.0037(7) 0.0001(7)
Si5 Si4+ 0.0160(11) 0.0126(8) 0.0092(8) -0.0021(7) 0.0061(8) -0.0003(7)
Al5 Al3+ 0.0160(11) 0.0126(8) 0.0092(8) -0.0021(7) 0.0061(8) -0.0003(7)
Si6 Si4+ 0.0089(10) 0.0153(8) 0.0109(9) -0.0018(7) 0.0044(8) 0.0016(7)
Al6 Al3+ 0.0089(10) 0.0153(8) 0.0109(9) -0.0018(7) 0.0044(8) 0.0016(7)
Si7 Si4+ 0.0140(10) 0.0122(8) 0.0090(9) -0.0016(7) 0.0060(8) 0.0006(7)
Al7 Al3+ 0.0140(10) 0.0122(8) 0.0090(9) -0.0016(7) 0.0060(8) 0.0006(7)
Si8 Si4+ 0.0150(11) 0.0155(8) 0.0116(9) 0.0018(7) 0.0068(8) -0.0014(7)
Al8 Al3+ 0.0150(11) 0.0155(8) 0.0116(9) 0.0018(7) 0.0068(8) -0.0014(7)
O1 O2- 0.019(3) 0.015(2) 0.013(2) 0.0043(19) 0.004(2) 0.001(2)
O2 O2- 0.023(3) 0.015(2) 0.025(3) 0.010(2) 0.007(3) 0.001(2)
O3 O2- 0.021(3) 0.027(2) 0.029(3) 0.002(2) 0.012(3) -0.003(2)
O4 O2- 0.024(3) 0.016(2) 0.010(2) 0.0043(18) 0.011(2) 0.0070(18)
O5 O2- 0.037(3) 0.018(2) 0.021(3) 0.003(2) 0.019(3) 0.002(2)
O6 O2- 0.021(3) 0.016(2) 0.016(2) 0.009(2) 0.000(2) 0.0000(19)
O7 O2- 0.018(3) 0.013(2) 0.019(2) -0.0097(18) 0.008(2) -0.005(2)
O8 O2- 0.024(3) 0.019(2) 0.015(2) -0.0058(19) 0.012(2) -0.0045(19)
O9 O2- 0.015(3) 0.022(2) 0.029(3) -0.0015(19) 0.012(2) 0.001(2)
O10 O2- 0.018(3) 0.028(3) 0.019(3) 0.002(2) 0.006(2) 0.006(2)
O11 O2- 0.010(2) 0.0094(18) 0.020(3) -0.0071(17) 0.002(2) -0.0007(19)
O12 O2- 0.015(3) 0.031(3) 0.016(2) -0.008(2) 0.000(2) -0.007(2)
O13 O2- 0.019(3) 0.028(3) 0.009(2) -0.001(2) 0.005(2) 0.002(2)
O14 O2- 0.019(3) 0.028(2) 0.036(4) 0.003(2) 0.021(3) -0.001(2)
O15 O2- 0.018(3) 0.027(2) 0.015(3) -0.003(2) 0.001(2) 0.002(2)
O16 O2- 0.015(3) 0.024(2) 0.012(2) 0.0033(19) 0.002(2) -0.003(2)
#End of TTdata_118770-ICSD